si-sym141                               
   1.0002809046796339     
     3.644682    0.000000    0.000000
    -2.665180    2.486066    0.000000
    -0.489748   -1.243025    3.390980
  Si/79d9987ad87
               2
Direct
  0.750000  0.250000  0.500000
  0.000000  0.000000  0.000000

   36   36   36
 -5.3006     -4.3800     -1.8480      1.6861      5.4352      8.6675      10.881      11.883      11.775      10.877    
  9.6089      8.3007      7.0827      6.0314      5.1852      4.5509      4.1168      3.8657      3.7837      3.8657    
  4.1168      4.5509      5.1852      6.0314      7.0827      8.3007      9.6089      10.877      11.775      11.883    
  10.881      8.6675      5.4352      1.6860     -1.8479     -4.3800     -4.3800     -4.8121     -3.4566     -.65489    
  2.9245      6.5031      9.4116      11.238      11.877      11.499      10.457      9.1666      7.8857      6.7198    
  5.7341      4.9566      4.3876      4.0128      3.8153      3.7837      3.9158      4.2193      4.7098      5.4042    
  6.3107      7.4153      8.6703      9.9898      11.211      11.958      11.828      10.548      8.0889      4.7238    
  1.0205     -2.2643     -1.8479     -3.4566     -3.4109     -1.7313      1.1562      4.5668      7.7728      10.198    
  11.535      11.767      11.119      9.9636      8.6773      7.4398      6.3397      5.4293      4.7263      4.2253    
  3.9104      3.7663      3.7839      3.9641      4.3170      4.8591      5.6059      6.5617      7.7056      8.9816    
  10.297      11.456      12.067      11.758      10.313      7.7729      4.4742      1.0205      1.6860     -.65488    
 -1.7313     -1.2789     0.57357      3.3517      6.3972      9.0683      10.903      11.699      11.522      10.638    
  9.4174      8.1575      6.9790      5.9561      5.1276      4.5018      4.0689      3.8127      3.7198      3.7841    
  4.0091      4.4066      4.9933      5.7829      6.7751      7.9429      9.2244      10.522      11.615      12.122    
  11.712      10.229      7.7729      4.7238      5.4352      2.9245      1.1562     0.57356      1.3162      3.1738    
  5.6633      8.1899      10.222      11.417      11.678      11.134      10.075      8.8407      7.6253      6.5195    
  5.5821      4.8388      4.2899      3.9228      3.7222      3.6771      3.7842      4.0492      4.4850      5.1076    
  5.9283      6.9427      8.1188      9.3907      10.659      11.693      12.139      11.712      10.313      8.0889    
  8.6675      6.5031      4.5668      3.3517      3.1738      4.0662      5.7710      7.8324      9.7458      11.100    
  11.671      11.451      10.618      9.4647      8.2532      7.0993      6.0771      5.2298      4.5714      4.0964    
  3.7909      3.6413      3.6393      3.7842      4.0831      4.5493      5.1975      6.0366      7.0583      8.2269    
  9.4752      10.704      11.693      12.122      11.758      10.548      10.881      9.4116      7.7728      6.3972    
  5.6633      5.7710      6.6735      8.0994      9.6486      10.920      11.624      11.641      11.036      10.014    
  8.8418      7.6752      6.5973      5.6658      4.9092      4.3325      3.9261      3.6764      3.5721      3.6076    
  3.7841      4.1096      4.5970      5.2596      6.1034      7.1172      8.2634      9.4752      10.659      11.615    
  12.067      11.828      11.883      11.238      10.198      9.0683      8.1899      7.8324      8.0994      8.8951    
  9.9629      10.976      11.640      11.774      11.348      10.478      9.3767      8.2294      7.1266      6.1353    
  5.2971      4.6285      4.1274      3.7826      3.5818      3.5163      3.5828      3.7839      4.1278      4.6265    
  5.2913      6.1260      7.1172      8.2269      9.3907      10.522      11.456      11.958      11.775      11.877    
  11.535      10.903      10.222      9.7458      9.6486      9.9629      10.572      11.254      11.763      11.903    
  11.587      10.854      9.8484      8.7474      7.6497      6.6257      5.7267      4.9802      4.3934      3.9600    
  3.6687      3.5092      3.4753      3.5657      3.7837      4.1371      4.6364      5.2913      6.1034      7.0583    
  8.1188      9.2244      10.297      11.211      10.877      11.499      11.767      11.699      11.417      11.100    
  10.920      10.976      11.254      11.639      11.956      12.036      11.772      11.148      10.249      9.2170    
  8.1524      7.1238      6.1878      5.3815      4.7214      4.2079      3.8328      3.5861      3.4599      3.4503    
  3.5571      3.7837      4.1371      4.6265      5.2596      6.0366      6.9427      7.9429      8.9816      9.9898    
  9.6089      10.457      11.119      11.522      11.678      11.671      11.624      11.640      11.763      11.956    
  12.120      12.131      11.889      11.355      10.566      9.6262      8.6214      7.6165      6.6698      5.8250    
  5.1073      4.5247      4.0742      3.7474      3.5361      3.4351      3.4419      3.5571      3.7837      4.1278    
  4.5970      5.1975      5.9283      6.7751      7.7056      8.6703      8.3007      9.1666      9.9636      10.638    
  11.134      11.451      11.641      11.774      11.903      12.036      12.131      12.112      11.901      11.456    
  10.787      9.9603      9.0423      8.0905      7.1614      6.3026      5.5463      4.9086      4.3927      3.9936    
  3.7044      3.5194      3.4351      3.4503      3.5657      3.7839      4.1096      4.5493      5.1076      5.7829    
  6.5617      7.4153      7.0827      7.8857      8.6773      9.4174      10.075      10.618      11.036      11.348    
  11.587      11.772      11.889      11.901      11.757      11.421      10.890      10.201      9.3987      8.5308    
  7.6502      6.8050      6.0330      5.3575      4.7885      4.3264      3.9667      3.7044      3.5361      3.4599    
  3.4753      3.5828      3.7841      4.0831      4.4850      4.9933      5.6059      6.3107      6.0314      6.7198    
  7.4398      8.1575      8.8407      9.4647      10.014      10.478      10.854      11.148      11.355      11.456    
  11.421      11.223      10.855      10.329      9.6711      8.9198      8.1209      7.3210      6.5604      5.8685    
  5.2623      4.7483      4.3264      3.9936      3.7474      3.5861      3.5092      3.5163      3.6076      3.7842    
  4.0492      4.4066      4.8591      5.4042      5.1852      5.7341      6.3397      6.9790      7.6253      8.2532    
  8.8418      9.3768      9.8484      10.249      10.566      10.787      10.890      10.855      10.667      10.324    
  9.8389      9.2368      8.5550      7.8352      7.1178      6.4360      5.8132      5.2623      4.7885      4.3927    
  4.0742      3.8328      3.6687      3.5818      3.5721      3.6393      3.7842      4.0091      4.3170      4.7098    
  4.5509      4.9566      5.4293      5.9561      6.5195      7.0993      7.6752      8.2294      8.7474      9.2170    
  9.6262      9.9603      10.201      10.329      10.324      10.176      9.8837      9.4598      8.9296      8.3269    
  7.6886      7.0491      6.4360      5.8685      5.3575      4.9086      4.5247      4.2079      3.9600      3.7826    
  3.6764      3.6413      3.6771      3.7841      3.9641      4.2193      4.1168      4.3876      4.7263      5.1276    
  5.5821      6.0771      6.5973      7.1266      7.6497      8.1524      8.6214      9.0423      9.3987      9.6711    
  9.8389      9.8837      9.7941      9.5693      9.2207      8.7708      8.2494      7.6886      7.1178      6.5604    
  6.0330      5.5463      5.1073      4.7214      4.3934      4.1274      3.9261      3.7909      3.7222      3.7198    
  3.7839      3.9158      3.8657      4.0128      4.2253      4.5018      4.8388      5.2298      5.6658      6.1353    
  6.6257      7.1238      7.6165      8.0905      8.5308      8.9198      9.2368      9.4598      9.5693      9.5522    
  9.4059      9.1390      8.7708      8.3269      7.8352      7.3210      6.8050      6.3026      5.8250      5.3815    
  4.9802      4.6285      4.3325      4.0964      3.9228      3.8127      3.7663      3.7837      3.7837      3.8154    
  3.9104      4.0689      4.2899      4.5714      4.9092      5.2971      5.7267      6.1878      6.6698      7.1614    
  7.6502      8.1210      8.5550      8.9296      9.2207      9.4059      9.4695      9.4059      9.2207      8.9296    
  8.5550      8.1209      7.6502      7.1614      6.6698      6.1878      5.7267      5.2971      4.9092      4.5714    
  4.2899      4.0689      3.9104      3.8153      3.8657      3.7837      3.7663      3.8127      3.9228      4.0964    
  4.3324      4.6285      4.9802      5.3815      5.8250      6.3026      6.8050      7.3210      7.8352      8.3269    
  8.7708      9.1390      9.4059      9.5522      9.5693      9.4598      9.2368      8.9198      8.5308      8.0905    
  7.6165      7.1238      6.6257      6.1353      5.6658      5.2298      4.8388      4.5018      4.2253      4.0128    
  4.1168      3.9158      3.7839      3.7198      3.7222      3.7910      3.9261      4.1274      4.3934      4.7214    
  5.1073      5.5463      6.0330      6.5604      7.1178      7.6886      8.2494      8.7708      9.2207      9.5693    
  9.7941      9.8837      9.8389      9.6711      9.3987      9.0423      8.6214      8.1524      7.6497      7.1266    
  6.5973      6.0771      5.5821      5.1276      4.7263      4.3876      4.5509      4.2193      3.9641      3.7841    
  3.6770      3.6413      3.6764      3.7826      3.9600      4.2079      4.5247      4.9086      5.3575      5.8685    
  6.4360      7.0490      7.6886      8.3269      8.9296      9.4598      9.8837      10.176      10.324      10.329    
  10.201      9.9603      9.6262      9.2170      8.7474      8.2294      7.6752      7.0993      6.5195      5.9561    
  5.4293      4.9566      5.1852      4.7098      4.3170      4.0091      3.7842      3.6393      3.5721      3.5818    
  3.6687      3.8328      4.0742      4.3927      4.7885      5.2623      5.8132      6.4360      7.1178      7.8352    
  8.5550      9.2368      9.8389      10.324      10.667      10.855      10.890      10.787      10.566      10.249    
  9.8484      9.3767      8.8418      8.2532      7.6253      6.9790      6.3397      5.7341      6.0314      5.4042    
  4.8591      4.4066      4.0492      3.7842      3.6076      3.5163      3.5092      3.5861      3.7474      3.9936    
  4.3264      4.7483      5.2623      5.8685      6.5604      7.3210      8.1210      8.9198      9.6711      10.329    
  10.855      11.223      11.421      11.456      11.355      11.148      10.854      10.478      10.014      9.4647    
  8.8407      8.1575      7.4398      6.7198      7.0827      6.3107      5.6059      4.9933      4.4850      4.0831    
  3.7841      3.5828      3.4753      3.4599      3.5361      3.7044      3.9667      4.3264      4.7885      5.3575    
  6.0330      6.8050      7.6502      8.5308      9.3987      10.201      10.890      11.421      11.757      11.901    
  11.889      11.772      11.587      11.348      11.036      10.618      10.075      9.4174      8.6773      7.8857    
  8.3007      7.4153      6.5617      5.7829      5.1076      4.5493      4.1096      3.7839      3.5657      3.4503    
  3.4351      3.5194      3.7044      3.9936      4.3927      4.9086      5.5463      6.3026      7.1614      8.0905    
  9.0423      9.9603      10.787      11.456      11.901      12.112      12.131      12.036      11.903      11.774    
  11.641      11.451      11.134      10.638      9.9636      9.1666      9.6089      8.6703      7.7056      6.7751    
  5.9283      5.1975      4.5970      4.1278      3.7837      3.5571      3.4419      3.4351      3.5361      3.7474    
  4.0742      4.5247      5.1073      5.8250      6.6698      7.6165      8.6214      9.6262      10.566      11.355    
  11.889      12.131      12.120      11.956      11.763      11.640      11.624      11.671      11.678      11.522    
  11.119      10.457      10.877      9.9898      8.9816      7.9429      6.9427      6.0366      5.2596      4.6265    
  4.1371      3.7837      3.5571      3.4503      3.4599      3.5861      3.8328      4.2079      4.7214      5.3815    
  6.1878      7.1238      8.1524      9.2170      10.249      11.148      11.772      12.036      11.956      11.639    
  11.254      10.976      10.920      11.100      11.417      11.699      11.767      11.499      11.775      11.211    
  10.297      9.2244      8.1188      7.0583      6.1034      5.2913      4.6364      4.1371      3.7837      3.5657    
  3.4753      3.5092      3.6687      3.9600      4.3934      4.9802      5.7267      6.6257      7.6497      8.7474    
  9.8484      10.854      11.587      11.903      11.763      11.254      10.572      9.9629      9.6486      9.7458    
  10.222      10.903      11.535      11.877      11.883      11.958      11.456      10.522      9.3907      8.2269    
  7.1172      6.1260      5.2913      4.6265      4.1278      3.7839      3.5828      3.5163      3.5818      3.7826    
  4.1274      4.6285      5.2971      6.1353      7.1266      8.2294      9.3768      10.478      11.348      11.774    
  11.640      10.976      9.9629      8.8951      8.0994      7.8324      8.1899      9.0683      10.198      11.238    
  10.881      11.828      12.067      11.615      10.659      9.4751      8.2634      7.1172      6.1034      5.2596    
  4.5970      4.1096      3.7841      3.6076      3.5721      3.6764      3.9261      4.3324      4.9092      5.6658    
  6.5973      7.6752      8.8418      10.014      11.036      11.641      11.624      10.920      9.6486      8.0994    
  6.6735      5.7710      5.6633      6.3972      7.7728      9.4116      8.6675      10.548      11.758      12.122    
  11.693      10.704      9.4751      8.2269      7.0583      6.0366      5.1975      4.5493      4.0831      3.7842    
  3.6393      3.6413      3.7910      4.0964      4.5714      5.2298      6.0771      7.0993      8.2532      9.4647    
  10.618      11.451      11.671      11.100      9.7458      7.8324      5.7710      4.0662      3.1738      3.3517    
  4.5668      6.5031      5.4352      8.0889      10.313      11.712      12.139      11.693      10.659      9.3907    
  8.1188      6.9427      5.9283      5.1076      4.4850      4.0492      3.7842      3.6770      3.7222      3.9228    
  4.2899      4.8388      5.5821      6.5195      7.6253      8.8407      10.075      11.134      11.678      11.417    
  10.222      8.1899      5.6633      3.1738      1.3162     0.57357      1.1562      2.9245      1.6861      4.7238    
  7.7729      10.229      11.712      12.122      11.615      10.522      9.2244      7.9429      6.7751      5.7829    
  4.9933      4.4066      4.0091      3.7841      3.7198      3.8127      4.0689      4.5018      5.1276      5.9561    
  6.9790      8.1575      9.4174      10.638      11.522      11.699      10.903      9.0683      6.3972      3.3517    
 0.57356     -1.2789     -1.7313     -.65489     -1.8480      1.0205      4.4742      7.7729      10.313      11.758    
  12.067      11.456      10.297      8.9816      7.7056      6.5617      5.6059      4.8591      4.3170      3.9641    
  3.7839      3.7663      3.9104      4.2253      4.7263      5.4293      6.3397      7.4398      8.6773      9.9636    
  11.119      11.767      11.535      10.198      7.7728      4.5668      1.1562     -1.7313     -3.4109     -3.4566    
 -4.3800     -2.2644      1.0205      4.7238      8.0889      10.548      11.828      11.958      11.211      9.9898    
  8.6703      7.4153      6.3107      5.4042      4.7098      4.2193      3.9158      3.7837      3.8154      4.0128    
  4.3876      4.9566      5.7341      6.7198      7.8857      9.1666      10.457      11.499      11.877      11.238    
  9.4116      6.5031      2.9245     -.65488     -3.4566     -4.8121     -4.3800     -3.7188     -1.4059      1.9863    
  5.6789      8.9261      11.202      12.286      12.257      11.412      10.164      8.8532      7.6185      6.5397    
  5.6600      4.9910      4.5245      4.2444      4.1371      4.1964      4.4258      4.8375      5.4474      6.2672    
  7.2920      8.4881      9.7856      11.073      12.068      12.357      11.600      9.6505      6.6398      3.0110    
 -.53975     -3.2214     -3.7188     -4.3800     -3.2215     -.53975      3.0110      6.6398      9.6505      11.601    
  12.357      12.068      11.073      9.7856      8.4881      7.2920      6.2672      5.4474      4.8375      4.4258    
  4.1964      4.1371      4.2444      4.5245      4.9910      5.6600      6.5397      7.6185      8.8532      10.164    
  11.412      12.257      12.286      11.202      8.9261      5.6789      1.9863     -1.4059     -1.4924     -3.3139    
 -3.4566     -1.8877     0.99066      4.4856      7.8401      10.442      11.949      12.319      11.759      10.635    
  9.3369      8.0701      6.9283      5.9697      5.2180      4.6719      4.3175      4.1394      4.1278      4.2819    
  4.6100      5.1269      5.8476      6.7765      7.8952      9.1520      10.459      11.647      12.340      12.152    
  10.834      8.3822      5.0934      1.5505      1.7625     -.78852     -2.0610     -1.7314     0.10830      2.9858    
  6.2155      9.1142      11.178      12.172      12.137      11.329      10.118      8.8342      7.6152      6.5414    
  5.6583      4.9800      4.4998      4.2029      4.0753      4.1096      4.3076      4.6794      5.2401      6.0031    
  6.9685      8.1117      9.3739      10.662      11.777      12.340      12.000      10.566      8.1028      4.9663    
  5.3118      2.5896     0.60908     -.12572     0.57355      2.5145      5.1965      7.9837      10.296      11.748    
  12.212      11.798      10.791      9.5465      8.2963      7.1410      6.1462      5.3446      4.7417      4.3271    
  4.0859      4.0062      4.0831      4.3207      4.7301      5.3264      6.1205      7.1084      8.2600      9.5120    
  10.767      11.811      12.280      11.867      10.442      8.1274      8.4426      6.0723      3.9129      2.5128    
  2.2441      3.1738      5.0436      7.3657      9.5860      11.243      12.073      12.040      11.310      10.177    
  8.9415      7.7438      6.6654      5.7570      5.0394      4.5109      4.1592      3.9701      3.9342      4.0492    
  4.3207      4.7604      5.3824      6.1951      7.1908      8.3353      9.5625      10.775      11.757      12.176    
  11.774      10.475      10.640      8.9846      7.1281      5.5477      4.6769      4.7608      5.7710      7.4204    
  9.2679      10.861      11.861      12.114      11.661      10.705      9.5265      8.3262      7.1973      6.2054    
  5.3869      4.7522      4.2946      4.0008      3.8589      3.8617      4.0091      4.3076      4.7690      5.4058    
  6.2240      7.2127      8.3353      9.5252      10.688      11.623      12.035      11.718      11.679      10.883    
  9.6513      8.3196      7.2766      6.8397      7.1446      8.0994      9.4218      10.740      11.710      12.109    
  11.877      11.113      10.035      8.8680      7.7233      6.6761      5.7762      5.0471      4.4910      4.0983    
  3.8564      3.7555      3.7910      3.9641      4.2819      4.7554      5.3956      6.2060      7.1736      8.2608    
  9.4027      10.511      11.412      11.856      11.625      11.619      11.128      10.322      9.4756      8.8865    
  8.7662      9.1665      9.9629      10.903      11.697      12.105      12.004      11.410      10.459      9.3544    
  8.2267      7.1544      6.1970      5.3901      4.7462      4.2619      3.9267      3.7294      3.6628      3.7242    
  3.9158      4.2444      4.7201      5.3520      6.1419      7.0753      8.1154      9.2004      10.250      11.127    
  10.768      11.327      11.497      11.301      10.879      10.443      10.203      10.282      10.676      11.254    
  11.810      12.134      12.082      11.612      10.792      9.7747      8.6934      7.6263      6.6381      5.7738    
  5.0564      4.4905      4.0695      3.7832      3.6229      3.5834      3.6634      3.8657      4.1964      4.6643    
  5.2769      6.0344      6.9222      7.9050      8.9262      9.9140      9.5130      10.337      10.950      11.276    
  11.335      11.231      11.114      11.114      11.293      11.613      11.956      12.168      12.116      11.731    
  11.033      10.121      9.1114      8.0789      7.0879      6.1897      5.4165      4.7815      4.2841      3.9167    
  3.6704      3.5390      3.5191      3.6104      3.8153      4.1394      4.5899      5.1730      5.8879      6.7204    
  7.6379      8.5896      8.2023      9.0598      9.8443      10.489      10.936      11.193      11.327      11.433    
  11.580      11.786      12.002      12.131      12.073      11.757      11.174      10.383      9.4699      8.5001    
  7.5352      6.6290      5.8207      5.1321      4.5695      4.1297      3.8054      3.5901      3.4794      3.4716    
  3.5665      3.7662      4.0753      4.4998      5.0446      5.7083      6.4778      7.3239      6.9742      7.7770    
  8.5680      9.3056      9.9550      10.478      10.869      11.163      11.407      11.630      11.822      11.935    
  11.901      11.664      11.204      10.549      9.7564      8.8778      7.9687      7.0826      6.2631      5.5392    
  4.9249      4.4227      4.0285      3.7368      3.5432      3.4453      3.4418      3.5328      3.7197      4.0062    
  4.3971      4.8965      5.5026      6.2035      5.9076      6.6010      7.3278      8.0526      8.7423      9.3723    
  9.9262      10.392      10.778      11.096      11.349      11.514      11.551      11.421      11.101      10.603    
  9.9562      9.1977      8.3756      7.5401      6.7366      5.9994      5.3500      4.7972      4.3420      3.9813    
  3.7116      3.5307      3.4372      3.4304      3.5100      3.6770      3.9342      4.2856      4.7342      5.2784    
  5.0436      5.6004      6.2171      6.8694      7.5298      8.1718      8.7751      9.3268      9.8194      10.245    
  10.596      10.858      11.005      11.011      10.855      10.532      10.053      9.4433      8.7405      7.9887    
  7.2318      6.5077      5.8436      5.2554      4.7499      4.3279      3.9884      3.7301      3.5525      3.4551    
  3.4373      3.4985      3.6393      3.8617      4.1690      4.5635      4.3902      4.8061      5.2921      5.8352    
  6.4169      7.0161      7.6119      8.1868      8.7270      9.2214      9.6583      10.022      10.293      10.447    
  10.462      10.324      10.032      9.5970      9.0449      8.4111      7.7352      7.0549      6.4018      5.7979    
  5.2562      4.7828      4.3803      4.0497      3.7922      3.6085      3.4987      3.4623      3.4985      3.6075    
  3.7909      4.0513      3.9361      4.2197      4.5736      4.9928      5.4676      5.9845      6.5276      7.0804    
  7.6271      8.1537      8.6465      9.0906      9.4678      9.7566      9.9342      9.9806      9.8837      9.6424    
  9.2687      8.7863      8.2270      7.6256      7.0145      6.4203      5.8620      5.3512      4.8951      4.4985    
  4.1649      3.8974      3.6980      3.5673      3.5049      3.5100      3.5828      3.7242      3.6634      3.8270    
  4.0572      4.3531      4.7113      5.1251      5.5851      6.0791      6.5939      7.1155      7.6302      8.1236    
  8.5791      8.9776      9.2967      9.5138      9.6088      9.5693      9.3933      9.0909      8.6827      8.1966    
  7.6629      7.1100      6.5609      6.0329      5.5380      5.0850      4.6812      4.3328      4.0446      3.8197    
  3.6595      3.5641      3.5328      3.5657      3.5571      3.6104      3.7270      3.9073      4.1508      4.4555    
  4.8173      5.2295      5.6831      6.1671      6.6698      7.1785      7.6790      8.1548      8.5857      8.9487    
  9.2195      9.3767      9.4059      9.3028      9.0746      8.7387      8.3193      7.8432      7.3354      6.8171    
  6.3050      5.8121      5.3493      4.9262      4.5514      4.2317      3.9716      3.7737      3.6387      3.5665    
  3.6104      3.5571      3.5665      3.6386      3.7737      3.9716      4.2317      4.5514      4.9262      5.3493    
  5.8121      6.3050      6.8171      7.3354      7.8432      8.3193      8.7387      9.0746      9.3028      9.4059    
  9.3767      9.2195      8.9487      8.5857      8.1548      7.6790      7.1785      6.6699      6.1671      5.6831    
  5.2295      4.8173      4.4555      4.1508      3.9073      3.7270      3.8270      3.6634      3.5657      3.5328    
  3.5641      3.6595      3.8197      4.0446      4.3328      4.6812      5.0850      5.5380      6.0329      6.5609    
  7.1100      7.6629      8.1966      8.6827      9.0909      9.3933      9.5693      9.6088      9.5138      9.2967    
  8.9776      8.5791      8.1236      7.6302      7.1155      6.5939      6.0791      5.5851      5.1252      4.7113    
  4.3531      4.0572      4.2197      3.9361      3.7242      3.5828      3.5100      3.5049      3.5673      3.6980    
  3.8974      4.1649      4.4984      4.8951      5.3512      5.8620      6.4203      7.0145      7.6256      8.2270    
  8.7863      9.2687      9.6424      9.8837      9.9806      9.9342      9.7566      9.4678      9.0906      8.6465    
  8.1537      7.6271      7.0804      6.5276      5.9845      5.4676      4.9928      4.5736      4.8061      4.3902    
  4.0513      3.7910      3.6076      3.4985      3.4623      3.4987      3.6085      3.7922      4.0497      4.3803    
  4.7828      5.2562      5.7979      6.4018      7.0549      7.7352      8.4111      9.0449      9.5969      10.032    
  10.324      10.462      10.446      10.293      10.022      9.6583      9.2214      8.7270      8.1868      7.6119    
  7.0161      6.4169      5.8352      5.2922      5.6004      5.0436      4.5635      4.1690      3.8617      3.6393    
  3.4985      3.4373      3.4551      3.5525      3.7301      3.9884      4.3279      4.7499      5.2554      5.8436    
  6.5077      7.2318      7.9887      8.7405      9.4433      10.053      10.532      10.855      11.011      11.005    
  10.858      10.596      10.245      9.8194      9.3268      8.7752      8.1719      7.5298      6.8694      6.2171    
  6.6010      5.9076      5.2784      4.7342      4.2856      3.9342      3.6771      3.5100      3.4304      3.4372    
  3.5307      3.7116      3.9813      4.3420      4.7972      5.3500      5.9994      6.7366      7.5401      8.3756    
  9.1977      9.9562      10.603      11.101      11.421      11.551      11.514      11.349      11.096      10.778    
  10.392      9.9262      9.3723      8.7423      8.0526      7.3278      7.7770      6.9741      6.2035      5.5026    
  4.8965      4.3971      4.0062      3.7198      3.5328      3.4419      3.4453      3.5433      3.7368      4.0285    
  4.4227      4.9249      5.5392      6.2631      7.0826      7.9687      8.8778      9.7564      10.549      11.204    
  11.664      11.901      11.935      11.822      11.630      11.407      11.163      10.869      10.478      9.9550    
  9.3056      8.5680      9.0598      8.2023      7.3239      6.4778      5.7083      5.0446      4.4998      4.0753    
  3.7663      3.5665      3.4716      3.4794      3.5901      3.8054      4.1297      4.5695      5.1321      5.8207    
  6.6290      7.5352      8.5002      9.4699      10.383      11.174      11.757      12.073      12.131      12.002    
  11.786      11.580      11.433      11.327      11.193      10.936      10.489      9.8443      10.337      9.5130    
  8.5896      7.6379      6.7204      5.8879      5.1730      4.5899      4.1394      3.8154      3.6104      3.5191    
  3.5390      3.6704      3.9167      4.2841      4.7815      5.4165      6.1897      7.0879      8.0789      9.1114    
  10.121      11.033      11.731      12.116      12.168      11.956      11.613      11.293      11.114      11.114    
  11.231      11.335      11.276      10.950      11.327      10.768      9.9140      8.9261      7.9050      6.9222    
  6.0344      5.2769      4.6643      4.1964      3.8657      3.6634      3.5834      3.6229      3.7832      4.0695    
  4.4905      5.0564      5.7738      6.6381      7.6263      8.6934      9.7747      10.792      11.612      12.082    
  12.134      11.810      11.254      10.676      10.282      10.203      10.443      10.879      11.301      11.497    
  11.619      11.625      11.127      10.250      9.2004      8.1154      7.0753      6.1419      5.3520      4.7201    
  4.2444      3.9158      3.7242      3.6628      3.7294      3.9267      4.2619      4.7462      5.3901      6.1970    
  7.1544      8.2267      9.3544      10.459      11.410      12.004      12.105      11.697      10.903      9.9629    
  9.1665      8.7662      8.8865      9.4756      10.322      11.128      10.883      11.679      11.856      11.412    
  10.511      9.4027      8.2608      7.1736      6.2060      5.3956      4.7554      4.2819      3.9641      3.7910    
  3.7555      3.8564      4.0983      4.4910      5.0471      5.7762      6.6761      7.7233      8.8680      10.035    
  11.113      11.877      12.109      11.710      10.740      9.4218      8.0994      7.1446      6.8397      7.2766    
  8.3196      9.6513      8.9846      10.640      11.718      12.035      11.623      10.688      9.5252      8.3353    
  7.2127      6.2240      5.4058      4.7690      4.3076      4.0091      3.8617      3.8589      4.0009      4.2946    
  4.7522      5.3870      6.2054      7.1973      8.3262      9.5265      10.705      11.661      12.114      11.861    
  10.861      9.2679      7.4204      5.7710      4.7608      4.6769      5.5477      7.1281      6.0723      8.4426    