si-sym141                               
   1.0002809046796339     
     3.644682    0.000000    0.000000
    -2.665180    2.486066    0.000000
    -0.489748   -1.243025    3.390980
  Si/79d9987ad87
               2
Direct
  0.750000  0.250000  0.500000
  0.000000  0.000000  0.000000

   36   36   36
 -.53006401046E+01 -.43799843766E+01 -.18479518457E+01 0.16860501795E+01 0.54352238609E+01
 0.86675362677E+01 0.10881225133E+02 0.11883043282E+02 0.11775113953E+02 0.10876904824E+02
 0.96088780890E+01 0.83007018184E+01 0.70827069573E+01 0.60314197671E+01 0.51851906399E+01
 0.45508666718E+01 0.41167959099E+01 0.38656607277E+01 0.37836670892E+01 0.38656673515E+01
 0.41167949968E+01 0.45508587333E+01 0.51851905940E+01 0.60314274179E+01 0.70827067175E+01
 0.83006928477E+01 0.96088761235E+01 0.10876912590E+02 0.11775117541E+02 0.11883039173E+02
 0.10881223775E+02 0.86675384260E+01 0.54352205543E+01 0.16860457963E+01 -.18479442867E+01
 -.43799708199E+01 -.43799708199E+01 -.48121362590E+01 -.34565623696E+01 -.65488734154E+00
 0.29245054199E+01 0.65030528892E+01 0.94115750217E+01 0.11237914984E+02 0.11877197635E+02
 0.11498825053E+02 0.10457254788E+02 0.91666209661E+01 0.78856612798E+01 0.67197847764E+01
 0.57340711717E+01 0.49566036910E+01 0.43875925878E+01 0.40127875692E+01 0.38153454833E+01
 0.37837336179E+01 0.39157580358E+01 0.42192954983E+01 0.47098156197E+01 0.54042431264E+01
 0.63107160783E+01 0.74153332084E+01 0.86702562832E+01 0.99898099127E+01 0.11210783982E+02
 0.11958231581E+02 0.11827782018E+02 0.10548116359E+02 0.80889350332E+01 0.47238158128E+01
 0.10204764921E+01 -.22643468944E+01 -.18479442867E+01 -.34565534293E+01 -.34109428754E+01
 -.17313320263E+01 0.11561770370E+01 0.45668122607E+01 0.77728250031E+01 0.10198464826E+02
 0.11535382639E+02 0.11766769909E+02 0.11118664694E+02 0.99636047699E+01 0.86773020798E+01
 0.74397789215E+01 0.63397384955E+01 0.54292994466E+01 0.47263158959E+01 0.42252838282E+01
 0.39104419008E+01 0.37662614676E+01 0.37838985401E+01 0.39640828439E+01 0.43169971490E+01
 0.48590529124E+01 0.56059464730E+01 0.65617133479E+01 0.77055702241E+01 0.89816299191E+01
 0.10297423588E+02 0.11455954800E+02 0.12067108142E+02 0.11757928227E+02 0.10313410947E+02
 0.77728577862E+01 0.44742245884E+01 0.10204764921E+01 0.16860457963E+01 -.65488398321E+00
 -.17313304059E+01 -.12788816254E+01 0.57356763687E+00 0.33516852357E+01 0.63971671705E+01
 0.90683128672E+01 0.10902522741E+02 0.11699221832E+02 0.11521805982E+02 0.10637583525E+02
 0.94174464713E+01 0.81574824071E+01 0.69789693475E+01 0.59561328078E+01 0.51276005979E+01
 0.45018175951E+01 0.40688850788E+01 0.38126966480E+01 0.37197521484E+01 0.37840857118E+01
 0.40090740124E+01 0.44066059411E+01 0.49932813704E+01 0.57828763952E+01 0.67750715642E+01
 0.79429061222E+01 0.92244077433E+01 0.10522130478E+02 0.11615193821E+02 0.12122113238E+02
 0.11712097899E+02 0.10228996717E+02 0.77728577862E+01 0.47238158128E+01 0.54352205543E+01
 0.29245046837E+01 0.11561754723E+01 0.57356212265E+00 0.13161891006E+01 0.31738379817E+01
 0.56633445685E+01 0.81898911525E+01 0.10221689806E+02 0.11417023000E+02 0.11677730510E+02
 0.11133614369E+02 0.10074814398E+02 0.88407378836E+01 0.76252744836E+01 0.65195311807E+01
 0.55821432938E+01 0.48387631827E+01 0.42899046044E+01 0.39228317652E+01 0.37222059143E+01
 0.36770523030E+01 0.37842082613E+01 0.40492154525E+01 0.44849767495E+01 0.51075610663E+01
 0.59283270344E+01 0.69427290574E+01 0.81187903009E+01 0.93906870507E+01 0.10658511000E+02
 0.11693172293E+02 0.12138562054E+02 0.11712097899E+02 0.10313410947E+02 0.80889350332E+01
 0.86675384260E+01 0.65030558953E+01 0.45668152940E+01 0.33516800110E+01 0.31738280283E+01
 0.40662180009E+01 0.57709755117E+01 0.78324174108E+01 0.97457800417E+01 0.11100155014E+02
 0.11671480980E+02 0.11451348766E+02 0.10618128412E+02 0.94647416096E+01 0.82531636495E+01
 0.70992670584E+01 0.60771169777E+01 0.52297723031E+01 0.45713681930E+01 0.40964159392E+01
 0.37909496328E+01 0.36413228227E+01 0.36393028662E+01 0.37842087373E+01 0.40831267560E+01
 0.45492612019E+01 0.51975305750E+01 0.60366248926E+01 0.70582605345E+01 0.82269081749E+01
 0.94751597381E+01 0.10704182374E+02 0.11693172293E+02 0.12122113238E+02 0.11757928227E+02
 0.10548116359E+02 0.10881223775E+02 0.94115760314E+01 0.77728326822E+01 0.63971728577E+01
 0.56633381381E+01 0.57709648983E+01 0.66735421676E+01 0.80994267723E+01 0.96485923197E+01
 0.10920436899E+02 0.11624020670E+02 0.11641202636E+02 0.11035676592E+02 0.10014297059E+02
 0.88418356864E+01 0.76751587033E+01 0.65972996897E+01 0.56657562802E+01 0.49092141442E+01
 0.43324523965E+01 0.39261009410E+01 0.36764260614E+01 0.35721013573E+01 0.36075582833E+01
 0.37840862340E+01 0.41096352455E+01 0.45970484267E+01 0.52596350001E+01 0.61034310124E+01
 0.71171806970E+01 0.82633833074E+01 0.94751597381E+01 0.10658511000E+02 0.11615193821E+02
 0.12067108142E+02 0.11827782018E+02 0.11883039173E+02 0.11237907589E+02 0.10198464066E+02
 0.90683219762E+01 0.81898976607E+01 0.78324121789E+01 0.80994186963E+01 0.88951335554E+01
 0.99629369209E+01 0.10975893427E+02 0.11639914247E+02 0.11773907076E+02 0.11348190502E+02
 0.10477989991E+02 0.93767490244E+01 0.82293818818E+01 0.71266426887E+01 0.61353362107E+01
 0.52971295324E+01 0.46284943546E+01 0.41273934395E+01 0.37826224852E+01 0.35818332771E+01
 0.35162956356E+01 0.35827705147E+01 0.37838975422E+01 0.41278275323E+01 0.46264960291E+01
 0.52913460576E+01 0.61260114053E+01 0.71171806970E+01 0.82269081749E+01 0.93906870507E+01
 0.10522130478E+02 0.11455954800E+02 0.11958231581E+02 0.11775117541E+02 0.11877192418E+02
 0.11535372234E+02 0.10902520029E+02 0.10221697084E+02 0.97457855472E+01 0.96485896379E+01
 0.99629329149E+01 0.10571774757E+02 0.11254014829E+02 0.11762548350E+02 0.11902871544E+02
 0.11587459672E+02 0.10854286041E+02 0.98483654133E+01 0.87473970681E+01 0.76497295934E+01
 0.66257391016E+01 0.57266622304E+01 0.49802244071E+01 0.43934332641E+01 0.39600110364E+01
 0.36686642655E+01 0.35091737490E+01 0.34753415428E+01 0.35657444156E+01 0.37837310576E+01
 0.41370810905E+01 0.46364440758E+01 0.52913460576E+01 0.61034310124E+01 0.70582605345E+01
 0.81187903009E+01 0.92244077433E+01 0.10297423588E+02 0.11210783982E+02 0.10876912590E+02
 0.11498831743E+02 0.11766766169E+02 0.11699211930E+02 0.11417018854E+02 0.11100158532E+02
 0.10920440196E+02 0.10975893294E+02 0.11254014649E+02 0.11638762666E+02 0.11955981235E+02
 0.12036292388E+02 0.11771502839E+02 0.11147787981E+02 0.10248519786E+02 0.92170343242E+01
 0.81524335221E+01 0.71238061053E+01 0.61878234037E+01 0.53815317956E+01 0.47213957716E+01
 0.42078928910E+01 0.38328208326E+01 0.35860894673E+01 0.34599225068E+01 0.34503183303E+01
 0.35570730188E+01 0.37836651954E+01 0.41370810905E+01 0.46264960291E+01 0.52596350001E+01
 0.60366248926E+01 0.69427290574E+01 0.79429061222E+01 0.89816299191E+01 0.99898099127E+01
 0.96088761235E+01 0.10457262053E+02 0.11118672617E+02 0.11521805272E+02 0.11677723765E+02
 0.11671476511E+02 0.11624020319E+02 0.11639915010E+02 0.11762549817E+02 0.11955983536E+02
 0.12120189462E+02 0.12131294519E+02 0.11889137978E+02 0.11354729093E+02 0.10566465122E+02
 0.96261722808E+01 0.86213572296E+01 0.76165043417E+01 0.66698446214E+01 0.58250368368E+01
 0.51072582602E+01 0.45247433865E+01 0.40741982686E+01 0.37473505272E+01 0.35361005006E+01
 0.34350540410E+01 0.34419005849E+01 0.35570730188E+01 0.37837310576E+01 0.41278275323E+01
 0.45970484267E+01 0.51975305750E+01 0.59283270344E+01 0.67750715642E+01 0.77055702241E+01
 0.86702562832E+01 0.83006928477E+01 0.91666160796E+01 0.99636089049E+01 0.10637590519E+02
 0.11133616602E+02 0.11451346234E+02 0.11641199100E+02 0.11773904123E+02 0.11902870220E+02
 0.12036294297E+02 0.12131297779E+02 0.12111803347E+02 0.11901213672E+02 0.11455893274E+02
 0.10787069786E+02 0.99602546695E+01 0.90423012292E+01 0.80904857944E+01 0.71614456349E+01
 0.63025846520E+01 0.55462691453E+01 0.49086339055E+01 0.43926562949E+01 0.39936021860E+01
 0.37044350869E+01 0.35193661435E+01 0.34350540410E+01 0.34503183303E+01 0.35657444156E+01
 0.37838975422E+01 0.41096352455E+01 0.45492612019E+01 0.51075610663E+01 0.57828763952E+01
 0.65617133479E+01 0.74153332084E+01 0.70827067175E+01 0.78856537583E+01 0.86772954670E+01
 0.94174465037E+01 0.10074818720E+02 0.10618132187E+02 0.11035677769E+02 0.11348188754E+02
 0.11587455827E+02 0.11771500286E+02 0.11889139552E+02 0.11901216823E+02 0.11757495945E+02
 0.11421114395E+02 0.10889941827E+02 0.10201186633E+02 0.93986788561E+01 0.85308375197E+01
 0.76501619121E+01 0.68050317102E+01 0.60330027704E+01 0.53574963423E+01 0.47885035622E+01
 0.43263634295E+01 0.39666825533E+01 0.37044350869E+01 0.35361005006E+01 0.34599225068E+01
 0.34753415428E+01 0.35827705147E+01 0.37840862340E+01 0.40831267560E+01 0.44849767495E+01
 0.49932813704E+01 0.56059464730E+01 0.63107160783E+01 0.60314274179E+01 0.67197880052E+01
 0.74397749562E+01 0.81574761060E+01 0.88407345823E+01 0.94647424970E+01 0.10014300598E+02
 0.10477993430E+02 0.10854286205E+02 0.11147784553E+02 0.11354726194E+02 0.11455894285E+02
 0.11421116961E+02 0.11223222727E+02 0.10854512177E+02 0.10328711094E+02 0.96710803623E+01
 0.89198348024E+01 0.81209494855E+01 0.73210166929E+01 0.65603949769E+01 0.58684791837E+01
 0.52622886095E+01 0.47483146349E+01 0.43263634295E+01 0.39936021860E+01 0.37473505272E+01
 0.35860894673E+01 0.35091737490E+01 0.35162956356E+01 0.36075582833E+01 0.37842087373E+01
 0.40492154525E+01 0.44066059411E+01 0.48590529124E+01 0.54042431264E+01 0.51851905940E+01
 0.57340772604E+01 0.63397439400E+01 0.69789696109E+01 0.76252704426E+01 0.82531588363E+01
 0.88418335317E+01 0.93767510998E+01 0.98483695075E+01 0.10248521307E+02 0.10566462681E+02
 0.10787067195E+02 0.10889942397E+02 0.10854514057E+02 0.10666823902E+02 0.10324268610E+02
 0.98388537674E+01 0.92367954287E+01 0.85549653824E+01 0.78351787094E+01 0.71177547193E+01
 0.64360181974E+01 0.58131904231E+01 0.52622886095E+01 0.47885035622E+01 0.43926562949E+01
 0.40741982686E+01 0.38328208326E+01 0.36686642655E+01 0.35818332771E+01 0.35721013573E+01
 0.36393028662E+01 0.37842082613E+01 0.40090740124E+01 0.43169971490E+01 0.47098156197E+01
 0.45508587333E+01 0.49565999391E+01 0.54293020580E+01 0.59561383235E+01 0.65195348579E+01
 0.70992662526E+01 0.76751542714E+01 0.82293779448E+01 0.87473974156E+01 0.92170378754E+01
 0.96261743052E+01 0.99602532113E+01 0.10201184690E+02 0.10328711384E+02 0.10324269801E+02
 0.10176101086E+02 0.98836810624E+01 0.94598089687E+01 0.89296328834E+01 0.83269110705E+01
 0.76885688059E+01 0.70490505011E+01 0.64360181974E+01 0.58684791837E+01 0.53574963423E+01
 0.49086339055E+01 0.45247433865E+01 0.42078928910E+01 0.39600110364E+01 0.37826224852E+01
 0.36764260614E+01 0.36413228227E+01 0.36770523030E+01 0.37840857118E+01 0.39640828439E+01
 0.42192954983E+01 0.41167949968E+01 0.43875863722E+01 0.47263098094E+01 0.51275991117E+01
 0.55821469320E+01 0.60771222785E+01 0.65973017802E+01 0.71266398541E+01 0.76497254045E+01
 0.81524326424E+01 0.86213596450E+01 0.90423030439E+01 0.93986781754E+01 0.96710791480E+01
 0.98388538097E+01 0.98836815634E+01 0.97940935921E+01 0.95692731621E+01 0.92206678680E+01
 0.87707657304E+01 0.82493784405E+01 0.76885688059E+01 0.71177547193E+01 0.65603949769E+01
 0.60330027704E+01 0.55462691453E+01 0.51072582602E+01 0.47213957716E+01 0.43934332641E+01
 0.41273934395E+01 0.39261009410E+01 0.37909496328E+01 0.37222059143E+01 0.37197521484E+01
 0.37838985401E+01 0.39157580358E+01 0.38656673515E+01 0.40127908996E+01 0.42252812211E+01
 0.45018113043E+01 0.48387585056E+01 0.52297731464E+01 0.56657612471E+01 0.61353398870E+01
 0.66257381715E+01 0.71238028607E+01 0.76165029653E+01 0.80904869841E+01 0.85308388133E+01
 0.89198347530E+01 0.92367948581E+01 0.94598087134E+01 0.95692730416E+01 0.95522171953E+01
 0.94058566632E+01 0.91390053468E+01 0.87707657304E+01 0.83269110705E+01 0.78351787094E+01
 0.73210166929E+01 0.68050317102E+01 0.63025846520E+01 0.58250368368E+01 0.53815317956E+01
 0.49802244071E+01 0.46284943546E+01 0.43324523965E+01 0.40964159392E+01 0.39228317652E+01
 0.38126966480E+01 0.37662614676E+01 0.37837336179E+01 0.37836670892E+01 0.38153508853E+01
 0.39104480869E+01 0.40688865347E+01 0.42899000826E+01 0.45713622849E+01 0.49092125082E+01
 0.52971327740E+01 0.57266659652E+01 0.61878240112E+01 0.66698428474E+01 0.71614442629E+01
 0.76501620681E+01 0.81209503181E+01 0.85549658914E+01 0.89296327797E+01 0.92206673332E+01
 0.94058561588E+01 0.94694818318E+01 0.94058566632E+01 0.92206678680E+01 0.89296328834E+01
 0.85549653824E+01 0.81209494855E+01 0.76501619121E+01 0.71614456349E+01 0.66698446214E+01
 0.61878234037E+01 0.57266622304E+01 0.52971295324E+01 0.49092141442E+01 0.45713681930E+01
 0.42899046044E+01 0.40688850788E+01 0.39104419008E+01 0.38153454833E+01 0.38656607277E+01
 0.37837295268E+01 0.37662639004E+01 0.38127033842E+01 0.39228362241E+01 0.40964142668E+01
 0.43324473611E+01 0.46284913826E+01 0.49802254613E+01 0.53815345381E+01 0.58250383663E+01
 0.63025842386E+01 0.68050304792E+01 0.73210161060E+01 0.78351792971E+01 0.83269120094E+01
 0.87707658706E+01 0.91390046947E+01 0.94058561588E+01 0.95522171953E+01 0.95692731621E+01
 0.94598089687E+01 0.92367954287E+01 0.89198348024E+01 0.85308375197E+01 0.80904857944E+01
 0.76165043417E+01 0.71238061053E+01 0.66257391016E+01 0.61353362107E+01 0.56657562802E+01
 0.52297723031E+01 0.48387631827E+01 0.45018175951E+01 0.42252838282E+01 0.40127875692E+01
 0.41167959099E+01 0.39157525242E+01 0.37838919792E+01 0.37197511499E+01 0.37222109820E+01
 0.37909551343E+01 0.39261020493E+01 0.41273906822E+01 0.43934302554E+01 0.47213950041E+01
 0.51072597079E+01 0.55462710743E+01 0.60330032668E+01 0.65603938120E+01 0.71177536914E+01
 0.76885693181E+01 0.82493795460E+01 0.87707658706E+01 0.92206673332E+01 0.95692730416E+01
 0.97940935921E+01 0.98836810624E+01 0.98388537674E+01 0.96710803623E+01 0.93986788561E+01
 0.90423012292E+01 0.86213572296E+01 0.81524335221E+01 0.76497295934E+01 0.71266426887E+01
 0.65972996897E+01 0.60771169777E+01 0.55821432938E+01 0.51276005979E+01 0.47263158959E+01
 0.43875925878E+01 0.45508666718E+01 0.42193004906E+01 0.39640803314E+01 0.37840791392E+01
 0.36770487721E+01 0.36413249699E+01 0.36764306604E+01 0.37826254258E+01 0.39600109049E+01
 0.42078907501E+01 0.45247415607E+01 0.49086343238E+01 0.53574983748E+01 0.58684801248E+01
 0.64360170265E+01 0.70490493272E+01 0.76885693181E+01 0.83269120094E+01 0.89296327797E+01
 0.94598087134E+01 0.98836815634E+01 0.10176101086E+02 0.10324268610E+02 0.10328711094E+02
 0.10201186633E+02 0.99602546695E+01 0.96261722808E+01 0.92170343242E+01 0.87473970681E+01
 0.82293818818E+01 0.76751587033E+01 0.70992670584E+01 0.65195311807E+01 0.59561328078E+01
 0.54292994466E+01 0.49566036910E+01 0.51851906399E+01 0.47098227613E+01 0.43170045423E+01
 0.40090750808E+01 0.37842038672E+01 0.36392985590E+01 0.35721006239E+01 0.35818357618E+01
 0.36686678022E+01 0.38328228246E+01 0.40741972841E+01 0.43926540918E+01 0.47885034100E+01
 0.52622906444E+01 0.58131914859E+01 0.64360170265E+01 0.71177536914E+01 0.78351792971E+01
 0.85549658914E+01 0.92367948581E+01 0.98388538097E+01 0.10324269801E+02 0.10666823902E+02
 0.10854512177E+02 0.10889941827E+02 0.10787069786E+02 0.10566465122E+02 0.10248519786E+02
 0.98483654133E+01 0.93767490244E+01 0.88418356864E+01 0.82531636495E+01 0.76252744836E+01
 0.69789693475E+01 0.63397384955E+01 0.57340711717E+01 0.60314197671E+01 0.54042395255E+01
 0.48590572102E+01 0.44066132077E+01 0.40492191555E+01 0.37842076338E+01 0.36075550218E+01
 0.35162930092E+01 0.35091738677E+01 0.35860926754E+01 0.37473538065E+01 0.39936021089E+01
 0.43263611825E+01 0.47483143127E+01 0.52622906444E+01 0.58684801248E+01 0.65603938120E+01
 0.73210161060E+01 0.81209503181E+01 0.89198347530E+01 0.96710791480E+01 0.10328711384E+02
 0.10854514057E+02 0.11223222727E+02 0.11421114395E+02 0.11455893274E+02 0.11354729093E+02
 0.11147787981E+02 0.10854286041E+02 0.10477989991E+02 0.10014297059E+02 0.94647416096E+01
 0.88407378836E+01 0.81574824071E+01 0.74397789215E+01 0.67197847764E+01 0.70827069573E+01
 0.63107092723E+01 0.56059407966E+01 0.49932820650E+01 0.44849814670E+01 0.40831311675E+01
 0.37840883110E+01 0.35827694664E+01 0.34753382128E+01 0.34599207555E+01 0.35361031017E+01
 0.37044389140E+01 0.39666828125E+01 0.43263611825E+01 0.47885034100E+01 0.53574983748E+01
 0.60330032668E+01 0.68050304792E+01 0.76501620681E+01 0.85308388133E+01 0.93986781754E+01
 0.10201184690E+02 0.10889942397E+02 0.11421116961E+02 0.11757495945E+02 0.11901213672E+02
 0.11889137978E+02 0.11771502839E+02 0.11587459672E+02 0.11348190502E+02 0.11035676592E+02
 0.10618128412E+02 0.10074814398E+02 0.94174464713E+01 0.86773020798E+01 0.78856612798E+01
 0.83007018184E+01 0.74153365505E+01 0.65617093532E+01 0.57828711276E+01 0.51075587728E+01
 0.45492618743E+01 0.41096384931E+01 0.37839019114E+01 0.35657457084E+01 0.34503150244E+01
 0.34350512966E+01 0.35193684617E+01 0.37044389140E+01 0.39936021089E+01 0.43926540918E+01
 0.49086343238E+01 0.55462710743E+01 0.63025842386E+01 0.71614442629E+01 0.80904869841E+01
 0.90423030439E+01 0.99602532113E+01 0.10787067195E+02 0.11455894285E+02 0.11901216823E+02
 0.12111803347E+02 0.12131294519E+02 0.12036292388E+02 0.11902871544E+02 0.11773907076E+02
 0.11641202636E+02 0.11451348766E+02 0.11133614369E+02 0.10637583525E+02 0.99636047699E+01
 0.91666209661E+01 0.96088780890E+01 0.86702638107E+01 0.77055747940E+01 0.67750713076E+01
 0.59283245220E+01 0.51975266551E+01 0.45970448873E+01 0.41278287593E+01 0.37837366662E+01
 0.35570757814E+01 0.34418973846E+01 0.34350512966E+01 0.35361031017E+01 0.37473538065E+01
 0.40741972841E+01 0.45247415607E+01 0.51072597079E+01 0.58250383663E+01 0.66698428474E+01
 0.76165029653E+01 0.86213596450E+01 0.96261743052E+01 0.10566462681E+02 0.11354726194E+02
 0.11889139552E+02 0.12131297779E+02 0.12120189462E+02 0.11955981235E+02 0.11762548350E+02
 0.11639914247E+02 0.11624020670E+02 0.11671480980E+02 0.11677730510E+02 0.11521805982E+02
 0.11118664694E+02 0.10457254788E+02 0.10876904824E+02 0.99898090446E+01 0.89816333402E+01
 0.79429094977E+01 0.69427323625E+01 0.60366263036E+01 0.52596306707E+01 0.46264893795E+01
 0.41370808247E+01 0.37836711753E+01 0.35570757814E+01 0.34503150244E+01 0.34599207555E+01
 0.35860926754E+01 0.38328228246E+01 0.42078907501E+01 0.47213950041E+01 0.53815345381E+01
 0.61878240112E+01 0.71238028607E+01 0.81524326424E+01 0.92170378754E+01 0.10248521307E+02
 0.11147784553E+02 0.11771500286E+02 0.12036294297E+02 0.11955983536E+02 0.11638762666E+02
 0.11254014829E+02 0.10975893427E+02 0.10920436899E+02 0.11100155014E+02 0.11417023000E+02
 0.11699221832E+02 0.11766769909E+02 0.11498825053E+02 0.11775113953E+02 0.11210779017E+02
 0.10297420963E+02 0.92244056111E+01 0.81187908212E+01 0.70582664628E+01 0.61034357931E+01
 0.52913418286E+01 0.46364362876E+01 0.41370808247E+01 0.37837366662E+01 0.35657457084E+01
 0.34753382128E+01 0.35091738677E+01 0.36686678022E+01 0.39600109049E+01 0.43934302554E+01
 0.49802254613E+01 0.57266659652E+01 0.66257381715E+01 0.76497254045E+01 0.87473974156E+01
 0.98483695075E+01 0.10854286205E+02 0.11587455827E+02 0.11902870220E+02 0.11762549817E+02
 0.11254014649E+02 0.10571774757E+02 0.99629369209E+01 0.96485923197E+01 0.97457800417E+01
 0.10221689806E+02 0.10902522741E+02 0.11535382639E+02 0.11877197635E+02 0.11883043282E+02
 0.11958232102E+02 0.11455955121E+02 0.10522127368E+02 0.93906797099E+01 0.82269058550E+01
 0.71171879747E+01 0.61260175057E+01 0.52913418286E+01 0.46264893795E+01 0.41278287593E+01
 0.37839019114E+01 0.35827694664E+01 0.35162930092E+01 0.35818357618E+01 0.37826254258E+01
 0.41273906822E+01 0.46284913826E+01 0.52971327740E+01 0.61353398870E+01 0.71266398541E+01
 0.82293779448E+01 0.93767510998E+01 0.10477993430E+02 0.11348188754E+02 0.11773904123E+02
 0.11639915010E+02 0.10975893294E+02 0.99629329149E+01 0.88951335554E+01 0.80994267723E+01
 0.78324174108E+01 0.81898911525E+01 0.90683128672E+01 0.10198464826E+02 0.11237914984E+02
 0.10881225133E+02 0.11827782714E+02 0.12067112668E+02 0.11615199829E+02 0.10658508127E+02
 0.94751492656E+01 0.82633798136E+01 0.71171879747E+01 0.61034357931E+01 0.52596306707E+01
 0.45970448873E+01 0.41096384931E+01 0.37840883110E+01 0.36075550218E+01 0.35721006239E+01
 0.36764306604E+01 0.39261020493E+01 0.43324473611E+01 0.49092125082E+01 0.56657612471E+01
 0.65973017802E+01 0.76751542714E+01 0.88418335317E+01 0.10014300598E+02 0.11035677769E+02
 0.11641199100E+02 0.11624020319E+02 0.10920440196E+02 0.96485896379E+01 0.80994186963E+01
 0.66735421676E+01 0.57709755117E+01 0.56633445685E+01 0.63971671705E+01 0.77728250031E+01
 0.94115750217E+01 0.86675362677E+01 0.10548110498E+02 0.11757924778E+02 0.12122120635E+02
 0.11693181951E+02 0.10704179694E+02 0.94751492656E+01 0.82269058550E+01 0.70582664628E+01
 0.60366263036E+01 0.51975266551E+01 0.45492618743E+01 0.40831311675E+01 0.37842076338E+01
 0.36392985590E+01 0.36413249699E+01 0.37909551343E+01 0.40964142668E+01 0.45713622849E+01
 0.52297731464E+01 0.60771222785E+01 0.70992662526E+01 0.82531588363E+01 0.94647424970E+01
 0.10618132187E+02 0.11451346234E+02 0.11671476511E+02 0.11100158532E+02 0.97457855472E+01
 0.78324121789E+01 0.57709648983E+01 0.40662180009E+01 0.31738379817E+01 0.33516852357E+01
 0.45668122607E+01 0.65030528892E+01 0.54352238609E+01 0.80889323695E+01 0.10313399255E+02
 0.11712091653E+02 0.12138570489E+02 0.11693181951E+02 0.10658508127E+02 0.93906797099E+01
 0.81187908212E+01 0.69427323625E+01 0.59283245220E+01 0.51075587728E+01 0.44849814670E+01
 0.40492191555E+01 0.37842038672E+01 0.36770487721E+01 0.37222109820E+01 0.39228362241E+01
 0.42899000826E+01 0.48387585056E+01 0.55821469320E+01 0.65195348579E+01 0.76252704426E+01
 0.88407345823E+01 0.10074818720E+02 0.11133616602E+02 0.11677723765E+02 0.11417018854E+02
 0.10221697084E+02 0.81898976607E+01 0.56633381381E+01 0.31738280283E+01 0.13161891006E+01
 0.57356763687E+00 0.11561770370E+01 0.29245054199E+01 0.16860501795E+01 0.47238244974E+01
 0.77728549955E+01 0.10228982790E+02 0.11712091653E+02 0.12122120635E+02 0.11615199829E+02
 0.10522127368E+02 0.92244056111E+01 0.79429094977E+01 0.67750713076E+01 0.57828711276E+01
 0.49932820650E+01 0.44066132077E+01 0.40090750808E+01 0.37840791392E+01 0.37197511499E+01
 0.38127033842E+01 0.40688865347E+01 0.45018113043E+01 0.51275991117E+01 0.59561383235E+01
 0.69789696109E+01 0.81574761060E+01 0.94174465037E+01 0.10637590519E+02 0.11521805272E+02
 0.11699211930E+02 0.10902520029E+02 0.90683219762E+01 0.63971728577E+01 0.33516800110E+01
 0.57356212265E+00 -.12788816254E+01 -.17313320263E+01 -.65488734154E+00 -.18479518457E+01
 0.10204831080E+01 0.44742353784E+01 0.77728549955E+01 0.10313399255E+02 0.11757924778E+02
 0.12067112668E+02 0.11455955121E+02 0.10297420963E+02 0.89816333402E+01 0.77055747940E+01
 0.65617093532E+01 0.56059407966E+01 0.48590572102E+01 0.43170045423E+01 0.39640803314E+01
 0.37838919792E+01 0.37662639004E+01 0.39104480869E+01 0.42252812211E+01 0.47263098094E+01
 0.54293020580E+01 0.63397439400E+01 0.74397749562E+01 0.86772954670E+01 0.99636089049E+01
 0.11118672617E+02 0.11766766169E+02 0.11535372234E+02 0.10198464066E+02 0.77728326822E+01
 0.45668152940E+01 0.11561754723E+01 -.17313304059E+01 -.34109428754E+01 -.34565623696E+01
 -.43799843766E+01 -.22643561002E+01 0.10204831080E+01 0.47238244974E+01 0.80889323695E+01
 0.10548110498E+02 0.11827782714E+02 0.11958232102E+02 0.11210779017E+02 0.99898090446E+01
 0.86702638107E+01 0.74153365505E+01 0.63107092723E+01 0.54042395255E+01 0.47098227613E+01
 0.42193004906E+01 0.39157525242E+01 0.37837295268E+01 0.38153508853E+01 0.40127908996E+01
 0.43875863722E+01 0.49565999391E+01 0.57340772604E+01 0.67197880052E+01 0.78856537583E+01
 0.91666160796E+01 0.10457262053E+02 0.11498831743E+02 0.11877192418E+02 0.11237907589E+02
 0.94115760314E+01 0.65030558953E+01 0.29245046837E+01 -.65488398321E+00 -.34565534293E+01
 -.48121362590E+01 -.43799949464E+01 -.37187824378E+01 -.14059059040E+01 0.19863116327E+01
 0.56789022700E+01 0.89261446048E+01 0.11202021427E+02 0.12286419814E+02 0.12256538049E+02
 0.11412313925E+02 0.10163923230E+02 0.88532335648E+01 0.76185243854E+01 0.65396540499E+01
 0.56599539131E+01 0.49910301247E+01 0.45244606126E+01 0.42443953256E+01 0.41370858849E+01
 0.41963955234E+01 0.44258365555E+01 0.48374848221E+01 0.54474227703E+01 0.62672224537E+01
 0.72920088707E+01 0.84880729698E+01 0.97855795848E+01 0.11072700700E+02 0.12067812100E+02
 0.12357178604E+02 0.11600481043E+02 0.96505128947E+01 0.66398377718E+01 0.30110165132E+01
 -.53974705625E+00 -.32214346534E+01 -.37187699780E+01 -.43800094448E+01 -.32214615854E+01
 -.53974880603E+00 0.30110312798E+01 0.66398380087E+01 0.96505130893E+01 0.11600511280E+02
 0.12357213833E+02 0.12067809158E+02 0.11072679605E+02 0.97855884347E+01 0.84880985097E+01
 0.72920048536E+01 0.62671999694E+01 0.54474270780E+01 0.48375062698E+01 0.44258313131E+01
 0.41963734986E+01 0.41370910543E+01 0.42444181537E+01 0.45244567475E+01 0.49910080253E+01
 0.56599573167E+01 0.65396742050E+01 0.76185163963E+01 0.88532050092E+01 0.10163920251E+02
 0.11412331612E+02 0.12256529389E+02 0.12286383936E+02 0.11202001379E+02 0.89261472441E+01
 0.56788976770E+01 0.19863007095E+01 -.14058985522E+01 -.14923893181E+01 -.33138660927E+01
 -.34565925910E+01 -.18877190706E+01 0.99065783094E+00 0.44856498763E+01 0.78400604627E+01
 0.10441818265E+02 0.11949191398E+02 0.12318922391E+02 0.11759184055E+02 0.10635236498E+02
 0.93369477871E+01 0.80700917764E+01 0.69282749491E+01 0.59696509186E+01 0.52179730990E+01
 0.46718574757E+01 0.43174543774E+01 0.41393914279E+01 0.41278395882E+01 0.42819027354E+01
 0.46099613127E+01 0.51268940166E+01 0.58475750773E+01 0.67765018887E+01 0.78952200468E+01
 0.91519596657E+01 0.10459224272E+02 0.11646700595E+02 0.12340034346E+02 0.12151775445E+02
 0.10834008695E+02 0.83821780352E+01 0.50934285863E+01 0.15505319701E+01 0.17624943061E+01
 -.78852285890E+00 -.20610389613E+01 -.17313580659E+01 0.10829679993E+00 0.29857928426E+01
 0.62155264146E+01 0.91141878129E+01 0.11177752779E+02 0.12172145700E+02 0.12137461836E+02
 0.11328867297E+02 0.10118338610E+02 0.88342199782E+01 0.76152050018E+01 0.65414314094E+01
 0.56583176803E+01 0.49799668805E+01 0.44998347690E+01 0.42029271301E+01 0.40752995844E+01
 0.41096479519E+01 0.43076105650E+01 0.46793532356E+01 0.52401255377E+01 0.60030912329E+01
 0.69685369829E+01 0.81116820563E+01 0.93739034757E+01 0.10662101725E+02 0.11777298155E+02
 0.12340250383E+02 0.11999606719E+02 0.10565849673E+02 0.81028300756E+01 0.49663149291E+01
 0.53118093146E+01 0.25895951498E+01 0.60907621540E+00 -.12571598675E+00 0.57355025936E+00
 0.25144543197E+01 0.51965435246E+01 0.79836815367E+01 0.10295677085E+02 0.11748228148E+02
 0.12211959951E+02 0.11798042500E+02 0.10791272866E+02 0.95464690725E+01 0.82963469786E+01
 0.71409879495E+01 0.61462122495E+01 0.53446210511E+01 0.47417047020E+01 0.43271426495E+01
 0.40859299693E+01 0.40061642767E+01 0.40831412834E+01 0.43206844931E+01 0.47301328833E+01
 0.53264149226E+01 0.61204662351E+01 0.71083913830E+01 0.82600452321E+01 0.95119697774E+01
 0.10767444831E+02 0.11811163062E+02 0.12279720687E+02 0.11866954017E+02 0.10442424306E+02
 0.81274090285E+01 0.84425962278E+01 0.60722708508E+01 0.39128676015E+01 0.25128384761E+01
 0.22441397983E+01 0.31738283527E+01 0.50436310813E+01 0.73657115804E+01 0.95859577286E+01
 0.11243292983E+02 0.12073137355E+02 0.12040030156E+02 0.11309604086E+02 0.10177169061E+02
 0.89415121164E+01 0.77438246397E+01 0.66653729686E+01 0.57570145782E+01 0.50393799440E+01
 0.45109484476E+01 0.41591808548E+01 0.39700930050E+01 0.39342015595E+01 0.40492335115E+01
 0.43206845864E+01 0.47604064320E+01 0.53823972678E+01 0.61950802707E+01 0.71907680687E+01
 0.83352762377E+01 0.95625111772E+01 0.10775022373E+02 0.11757112607E+02 0.12175546268E+02
 0.11773699978E+02 0.10475273109E+02 0.10640256962E+02 0.89846157298E+01 0.71281376887E+01
 0.55477171479E+01 0.46769334450E+01 0.47607983616E+01 0.57709704343E+01 0.74204446615E+01
 0.92679235874E+01 0.10861100528E+02 0.11861136205E+02 0.12113807219E+02 0.11661361810E+02
 0.10704753460E+02 0.95264741227E+01 0.83261930759E+01 0.71972847124E+01 0.62054198843E+01
 0.53869494185E+01 0.47521875098E+01 0.42945590810E+01 0.40008447587E+01 0.38588824374E+01
 0.38617059525E+01 0.40090945767E+01 0.43076086949E+01 0.47689755453E+01 0.54057978656E+01
 0.62239609389E+01 0.72126797026E+01 0.83352638324E+01 0.95251792694E+01 0.10687842993E+02
 0.11622603184E+02 0.12035271938E+02 0.11718425578E+02 0.11679231577E+02 0.10882597397E+02
 0.96512619918E+01 0.83196021239E+01 0.72765835499E+01 0.68396707816E+01 0.71446414518E+01
 0.80994242726E+01 0.94217812033E+01 0.10740007610E+02 0.11710474866E+02 0.12109274921E+02
 0.11876732716E+02 0.11113352728E+02 0.10035271496E+02 0.88680376244E+01 0.77233432649E+01
 0.66760631390E+01 0.57762091195E+01 0.50471114183E+01 0.44909918849E+01 0.40982782824E+01
 0.38564028297E+01 0.37555081245E+01 0.37909719977E+01 0.39641009360E+01 0.42818943980E+01
 0.47554098050E+01 0.53955776264E+01 0.62059628035E+01 0.71735745251E+01 0.82607907104E+01
 0.94026767522E+01 0.10510811002E+02 0.11412024544E+02 0.11855696277E+02 0.11624945023E+02
 0.11619472475E+02 0.11128459335E+02 0.10321526422E+02 0.94755738948E+01 0.88864973793E+01
 0.87662185670E+01 0.91665369853E+01 0.99629373756E+01 0.10903398737E+02 0.11697116383E+02
 0.12105289856E+02 0.12004440627E+02 0.11409798154E+02 0.10459146062E+02 0.93543870207E+01
 0.82267340212E+01 0.71543834354E+01 0.61970131234E+01 0.53900870727E+01 0.47461927720E+01
 0.42619431689E+01 0.39266729246E+01 0.37294464843E+01 0.36628473249E+01 0.37242062847E+01
 0.39157672362E+01 0.42444007748E+01 0.47200971571E+01 0.53520388614E+01 0.61418682712E+01
 0.70753451986E+01 0.81153823885E+01 0.92004200617E+01 0.10250194302E+02 0.11126860057E+02
 0.10767662022E+02 0.11327368475E+02 0.11497216049E+02 0.11300635003E+02 0.10878564414E+02
 0.10443495762E+02 0.10203129399E+02 0.10282337475E+02 0.10676215436E+02 0.11254019526E+02