POSCAR-si-sym141                        
   1.0002809046796339     
     3.644682    0.000000    0.000000
    -2.665180    2.486066    0.000000
    -0.489748   -1.243025    3.390980
  Si/79d9987ad87
               2
Direct
  0.750000  0.250000  0.500000
  0.000000  0.000000  0.000000

   36   36   36
 -.53041508004E+01 -.43832161792E+01 -.18504358337E+01 0.16845494238E+01 0.54346634261E+01
 0.86676519081E+01 0.10881651348E+02 0.11883444646E+02 0.11775283882E+02 0.10876803681E+02
 0.96086040348E+01 0.83004086169E+01 0.70825140597E+01 0.60313710334E+01 0.51852595033E+01
 0.45509918336E+01 0.41169224229E+01 0.38657655697E+01 0.37837603020E+01 0.38657724235E+01
 0.41169214109E+01 0.45509828429E+01 0.51852572914E+01 0.60313758758E+01 0.70825112341E+01
 0.83003980598E+01 0.96086016986E+01 0.10876811827E+02 0.11775287862E+02 0.11883440571E+02
 0.10881649975E+02 0.86676547301E+01 0.54346620190E+01 0.16845480657E+01 -.18504250354E+01
 -.43832005055E+01 -.43832005055E+01 -.48154780834E+01 -.34594822595E+01 -.65699213624E+00
 0.29233559006E+01 0.65027369047E+01 0.94117907117E+01 0.11238306887E+02 0.11877477767E+02
 0.11498850638E+02 0.10457042263E+02 0.91662981786E+01 0.78853770000E+01 0.67196333406E+01
 0.57340684142E+01 0.49567046198E+01 0.43877313923E+01 0.40129153642E+01 0.38154486211E+01
 0.37838278622E+01 0.39158654661E+01 0.42194183703E+01 0.47099224648E+01 0.54042770745E+01
 0.63106254949E+01 0.74151124488E+01 0.86699738461E+01 0.99896006752E+01 0.11210793653E+02
 0.11958522477E+02 0.11828265114E+02 0.10548541941E+02 0.80889506907E+01 0.47230776506E+01
 0.10187798942E+01 -.22669638629E+01 -.18504250354E+01 -.34594716325E+01 -.34138140447E+01
 -.17336949058E+01 0.11546103646E+01 0.45660825178E+01 0.77727499905E+01 0.10198736334E+02
 0.11535687933E+02 0.11766893040E+02 0.11118537653E+02 0.99632971587E+01 0.86769582802E+01
 0.74395287765E+01 0.63396438035E+01 0.54293475334E+01 0.47264475060E+01 0.42254336998E+01
 0.39105702108E+01 0.37663639043E+01 0.37839945789E+01 0.39641913614E+01 0.43171134432E+01
 0.48591403764E+01 0.56059501887E+01 0.65615931178E+01 0.77053387606E+01 0.89813730108E+01
 0.10297281834E+02 0.11456058530E+02 0.12067486874E+02 0.11758458115E+02 0.10313823264E+02
 0.77728111329E+01 0.44734203700E+01 0.10187798942E+01 0.16845480657E+01 -.65698655679E+00
 -.17336922914E+01 -.12810787694E+01 0.57189091838E+00 0.33507014813E+01 0.63968312473E+01
 0.90684116516E+01 0.10902775492E+02 0.11699386010E+02 0.11521751861E+02 0.10637316941E+02
 0.94170776686E+01 0.81571534172E+01 0.69787789571E+01 0.59561067264E+01 0.51277009528E+01
 0.45019769869E+01 0.40690437261E+01 0.38128254752E+01 0.37198549445E+01 0.37841834790E+01
 0.40091814780E+01 0.44067127762E+01 0.49933487833E+01 0.57828540729E+01 0.67749308469E+01
 0.79426741803E+01 0.92241803021E+01 0.10522046120E+02 0.11615364953E+02 0.12122544387E+02
 0.11712648136E+02 0.10229402165E+02 0.77728111329E+01 0.47230776506E+01 0.54346620190E+01
 0.29233567939E+01 0.11546097625E+01 0.57188568203E+00 0.13147342535E+01 0.31728418544E+01
 0.56628740947E+01 0.81898427317E+01 0.10221853397E+02 0.11417174608E+02 0.11677714335E+02
 0.11133387663E+02 0.10074444087E+02 0.88403543942E+01 0.76249980721E+01 0.65194218344E+01
 0.55821919541E+01 0.48389133650E+01 0.42900876844E+01 0.39229973222E+01 0.37223357624E+01
 0.36771562646E+01 0.37843069757E+01 0.40493194829E+01 0.44850721048E+01 0.51076093628E+01
 0.59282838148E+01 0.69425754715E+01 0.81185628680E+01 0.93904845247E+01 0.10658464729E+02
 0.11693378354E+02 0.12139010515E+02 0.11712648136E+02 0.10313823264E+02 0.80889506907E+01
 0.86676547301E+01 0.65027404465E+01 0.45660857693E+01 0.33506961172E+01 0.31728316342E+01
 0.40654366144E+01 0.57705350170E+01 0.78323045919E+01 0.97458668274E+01 0.11100265301E+02
 0.11671466221E+02 0.11451142361E+02 0.10617762042E+02 0.94643216861E+01 0.82528158635E+01
 0.70990757967E+01 0.60771015331E+01 0.52298948821E+01 0.45715622499E+01 0.40966179719E+01
 0.37911207075E+01 0.36414543349E+01 0.36394082854E+01 0.37843071187E+01 0.40832253213E+01
 0.45493444381E+01 0.51975623186E+01 0.60365663917E+01 0.70580997485E+01 0.82266855575E+01
 0.94749713106E+01 0.10704149398E+02 0.11693378354E+02 0.12122544387E+02 0.11758458115E+02
 0.10548541941E+02 0.10881649975E+02 0.94117913947E+01 0.77727570619E+01 0.63968361158E+01
 0.56628668280E+01 0.57705238549E+01 0.66732595767E+01 0.80993405493E+01 0.96486426637E+01
 0.10920503701E+02 0.11623983050E+02 0.11640992356E+02 0.11035304921E+02 0.10013847656E+02
 0.88414279388E+01 0.76748912663E+01 0.65972149758E+01 0.56658371237E+01 0.49094033480E+01
 0.43326820365E+01 0.39263171927E+01 0.36766016149E+01 0.35722349168E+01 0.36076648603E+01
 0.37841829561E+01 0.41097273731E+01 0.45971207791E+01 0.52596544363E+01 0.61033631807E+01
 0.71170167605E+01 0.82631626636E+01 0.94749713106E+01 0.10658464729E+02 0.11615364953E+02
 0.12067486874E+02 0.11828265114E+02 0.11883440571E+02 0.11238298943E+02 0.10198734570E+02
 0.90684194826E+01 0.81898479252E+01 0.78322982875E+01 0.80993318905E+01 0.88951226308E+01
 0.99629834788E+01 0.10975924262E+02 0.11639841290E+02 0.11773672954E+02 0.11347798680E+02
 0.10477508131E+02 0.93762858700E+01 0.82290425401E+01 0.71264866828E+01 0.61353653875E+01
 0.52972992287E+01 0.46287383842E+01 0.41276495856E+01 0.37828487420E+01 0.35820124542E+01
 0.35164312165E+01 0.35828776705E+01 0.37839919121E+01 0.41279139153E+01 0.46265607872E+01
 0.52913589107E+01 0.61259404346E+01 0.71170167605E+01 0.82266855575E+01 0.93904845247E+01
 0.10522046120E+02 0.11456058530E+02 0.11958522477E+02 0.11775287862E+02 0.11877472312E+02
 0.11535676685E+02 0.10902771505E+02 0.10221859236E+02 0.97458710162E+01 0.96486390297E+01
 0.99629790132E+01 0.10571814376E+02 0.11254005046E+02 0.11762428473E+02 0.11902597672E+02
 0.11587033479E+02 0.10853764232E+02 0.98478461044E+01 0.87469863994E+01 0.76494995217E+01
 0.66257081673E+01 0.57267992644E+01 0.49804684718E+01 0.43937184804E+01 0.39602853063E+01
 0.36688972098E+01 0.35093558355E+01 0.34754788520E+01 0.35658517322E+01 0.37838234330E+01
 0.41371640991E+01 0.46365061085E+01 0.52913589107E+01 0.61033631807E+01 0.70580997485E+01
 0.81185628680E+01 0.92241803021E+01 0.10297281834E+02 0.11210793653E+02 0.10876811827E+02
 0.11498857398E+02 0.11766888883E+02 0.11699375211E+02 0.11417169267E+02 0.11100267594E+02
 0.10920505979E+02 0.10975923460E+02 0.11254004570E+02 0.11638684762E+02 0.11955793536E+02
 0.12035961774E+02 0.11771029778E+02 0.11147219292E+02 0.10247942456E+02 0.92165511402E+01
 0.81521249489E+01 0.71237056114E+01 0.61879141483E+01 0.53817606946E+01 0.47216964617E+01
 0.42082063804E+01 0.38331065850E+01 0.35863267797E+01 0.34601068301E+01 0.34504568762E+01
 0.35571803544E+01 0.37837568016E+01 0.41371640991E+01 0.46265607872E+01 0.52596544363E+01
 0.60365663917E+01 0.69425754715E+01 0.79426741803E+01 0.89813730108E+01 0.99896006752E+01
 0.96086016986E+01 0.10457049394E+02 0.11118545378E+02 0.11521750684E+02 0.11677706829E+02
 0.11671460841E+02 0.11623981839E+02 0.11639841394E+02 0.11762429530E+02 0.11955795656E+02
 0.12119904269E+02 0.12130886830E+02 0.11888606239E+02 0.11354109223E+02 0.10565830537E+02
 0.96256176227E+01 0.86209665301E+01 0.76163239535E+01 0.66698732833E+01 0.58252326528E+01
 0.51075578355E+01 0.45250832558E+01 0.40745294765E+01 0.37476430242E+01 0.35363404558E+01
 0.34352396675E+01 0.34420395964E+01 0.35571803544E+01 0.37838234330E+01 0.41279139153E+01
 0.45971207791E+01 0.51975623186E+01 0.59282838148E+01 0.67749308469E+01 0.77053387606E+01
 0.86699738461E+01 0.83003980598E+01 0.91662923958E+01 0.99633008439E+01 0.10637323628E+02
 0.11133389499E+02 0.11451139283E+02 0.11640988211E+02 0.11773669453E+02 0.11902595928E+02
 0.12035963399E+02 0.12130889935E+02 0.12111300768E+02 0.11900613798E+02 0.11455221354E+02
 0.10786383389E+02 0.99596351270E+01 0.90418295813E+01 0.80902173750E+01 0.71613951480E+01
 0.63027253728E+01 0.55465457383E+01 0.49089821090E+01 0.43930202430E+01 0.39939430376E+01
 0.37047307742E+01 0.35196070199E+01 0.34352396675E+01 0.34504568762E+01 0.35658517322E+01
 0.37839919121E+01 0.41097273731E+01 0.45493444381E+01 0.51076093628E+01 0.57828540729E+01
 0.65615931178E+01 0.74151124488E+01 0.70825112341E+01 0.78853677318E+01 0.86769506935E+01
 0.94170772529E+01 0.10074448168E+02 0.10617765548E+02 0.11035305730E+02 0.11347796515E+02
 0.11587029236E+02 0.11771026871E+02 0.11888607512E+02 0.11900616753E+02 0.11756827462E+02
 0.11420395314E+02 0.10889214472E+02 0.10200515491E+02 0.93981351504E+01 0.85304793907E+01
 0.76500177846E+01 0.68050928085E+01 0.60332279354E+01 0.53578266685E+01 0.47888798351E+01
 0.43267387675E+01 0.39670264745E+01 0.37047307742E+01 0.35363404558E+01 0.34601068301E+01
 0.34754788520E+01 0.35828776705E+01 0.37841829561E+01 0.40832253213E+01 0.44850721048E+01
 0.49933487833E+01 0.56059501887E+01 0.63106254949E+01 0.60313758758E+01 0.67196344441E+01
 0.74395235060E+01 0.81571465235E+01 0.88403509214E+01 0.94643225079E+01 0.10013851042E+02
 0.10477511293E+02 0.10853764043E+02 0.11147215479E+02 0.11354105919E+02 0.11455221977E+02
 0.11420397616E+02 0.11222471919E+02 0.10853761205E+02 0.10328007647E+02 0.96704814704E+01
 0.89193945669E+01 0.81207047340E+01 0.73209760258E+01 0.65605361180E+01 0.58687561528E+01
 0.52626455653E+01 0.47487000555E+01 0.43267387675E+01 0.39939430376E+01 0.37476430242E+01
 0.35863267797E+01 0.35093558355E+01 0.35164312165E+01 0.36076648603E+01 0.37843071187E+01
 0.40493194829E+01 0.44067127762E+01 0.48591403764E+01 0.54042770745E+01 0.51852572914E+01
 0.57340726821E+01 0.63396480946E+01 0.69787787899E+01 0.76249941028E+01 0.82528112819E+01
 0.88414259043E+01 0.93762878574E+01 0.98478499468E+01 0.10247943636E+02 0.10565827692E+02
 0.10786380330E+02 0.10889214570E+02 0.10853762761E+02 0.10666074922E+02 0.10323557030E+02
 0.98382224920E+01 0.92362897299E+01 0.85546237453E+01 0.78350225969E+01 0.71177814744E+01
 0.64362007849E+01 0.58134847869E+01 0.52626455653E+01 0.47888798351E+01 0.43930202430E+01
 0.40745294765E+01 0.38331065850E+01 0.36688972098E+01 0.35820124542E+01 0.35722349168E+01
 0.36394082854E+01 0.37843069757E+01 0.40091814780E+01 0.43171134432E+01 0.47099224648E+01
 0.45509828429E+01 0.49566997970E+01 0.54293495145E+01 0.59561122869E+01 0.65194261028E+01
 0.70990757557E+01 0.76748874064E+01 0.82290388182E+01 0.87469866648E+01 0.92165544656E+01
 0.96256193694E+01 0.99596333205E+01 0.10200513085E+02 0.10328007422E+02 0.10323557853E+02
 0.10175409898E+02 0.98830434518E+01 0.94592605807E+01 0.89292085360E+01 0.83266383600E+01
 0.76884607433E+01 0.70491005537E+01 0.64362007849E+01 0.58687561528E+01 0.53578266685E+01
 0.49089821090E+01 0.45250832558E+01 0.42082063804E+01 0.39602853063E+01 0.37828487420E+01
 0.36766016149E+01 0.36414543349E+01 0.36771562646E+01 0.37841834790E+01 0.39641913614E+01
 0.42194183703E+01 0.41169214109E+01 0.43877248163E+01 0.47264413083E+01 0.51277000089E+01
 0.55821967881E+01 0.60771082908E+01 0.65972182761E+01 0.71264845069E+01 0.76494954769E+01
 0.81521239612E+01 0.86209688272E+01 0.90418313120E+01 0.93981342893E+01 0.96704798582E+01
 0.98382219883E+01 0.98830435330E+01 0.97934772610E+01 0.95687074099E+01 0.92201820929E+01
 0.87703878128E+01 0.82491302963E+01 0.76884607433E+01 0.71177814744E+01 0.65605361180E+01
 0.60332279354E+01 0.55465457383E+01 0.51075578355E+01 0.47216964617E+01 0.43937184804E+01
 0.41276495856E+01 0.39263171927E+01 0.37911207075E+01 0.37223357624E+01 0.37198549445E+01
 0.37839945789E+01 0.39158654661E+01 0.38657724235E+01 0.40129185867E+01 0.42254311441E+01
 0.45019714344E+01 0.48389102628E+01 0.52298977735E+01 0.56658439629E+01 0.61353702396E+01
 0.66257076241E+01 0.71237022861E+01 0.76163224733E+01 0.80902186724E+01 0.85304808980E+01
 0.89193945426E+01 0.92362888075E+01 0.94592597188E+01 0.95687068066E+01 0.95516597386E+01
 0.94053337216E+01 0.91385425909E+01 0.87703878128E+01 0.83266383600E+01 0.78350225969E+01
 0.73209760258E+01 0.68050928085E+01 0.63027253728E+01 0.58252326528E+01 0.53817606946E+01
 0.49804684718E+01 0.46287383842E+01 0.43326820365E+01 0.40966179719E+01 0.39229973222E+01
 0.38128254752E+01 0.37663639043E+01 0.37838278622E+01 0.37837603020E+01 0.38154536730E+01
 0.39105761762E+01 0.40690457074E+01 0.42900847331E+01 0.45715586802E+01 0.49094040885E+01
 0.52973041327E+01 0.57268036190E+01 0.61879145840E+01 0.66698711483E+01 0.71613937416E+01
 0.76500183318E+01 0.81207060618E+01 0.85546244127E+01 0.89292080601E+01 0.92201808714E+01
 0.94053326863E+01 0.94689463438E+01 0.94053337216E+01 0.92201820929E+01 0.89292085360E+01
 0.85546237453E+01 0.81207047340E+01 0.76500177846E+01 0.71613951480E+01 0.66698732833E+01
 0.61879141483E+01 0.57267992644E+01 0.52972992287E+01 0.49094033480E+01 0.45715622499E+01
 0.42900876844E+01 0.40690437261E+01 0.39105702108E+01 0.38154486211E+01 0.38657655697E+01
 0.37838231306E+01 0.37663657336E+01 0.38128323358E+01 0.39230030944E+01 0.40966186742E+01
 0.43326797203E+01 0.46287375439E+01 0.49804704487E+01 0.53817631799E+01 0.58252333597E+01
 0.63027243494E+01 0.68050916324E+01 0.73209760507E+01 0.78350238403E+01 0.83266394886E+01
 0.87703875345E+01 0.91385412133E+01 0.94053326863E+01 0.95516597386E+01 0.95687074099E+01
 0.94592605807E+01 0.92362897299E+01 0.89193945669E+01 0.85304793907E+01 0.80902173750E+01
 0.76163239535E+01 0.71237056114E+01 0.66257081673E+01 0.61353653875E+01 0.56658371237E+01
 0.52298948821E+01 0.48389133650E+01 0.45019769869E+01 0.42254336998E+01 0.40129153642E+01
 0.41169224229E+01 0.39158595854E+01 0.37839874995E+01 0.37198539700E+01 0.37223420167E+01
 0.37911286554E+01 0.39263214238E+01 0.41276496168E+01 0.43937170155E+01 0.47216956742E+01
 0.51075581253E+01 0.55465462658E+01 0.60332276186E+01 0.65605350481E+01 0.71177811577E+01
 0.76884619586E+01 0.82491315863E+01 0.87703875345E+01 0.92201808714E+01 0.95687068066E+01
 0.97934772610E+01 0.98830434518E+01 0.98382224920E+01 0.96704814704E+01 0.93981351504E+01
 0.90418295813E+01 0.86209665301E+01 0.81521249489E+01 0.76494995217E+01 0.71264866828E+01
 0.65972149758E+01 0.60771015331E+01 0.55821919541E+01 0.51277009528E+01 0.47264475060E+01
 0.43877313923E+01 0.45509918336E+01 0.42194240532E+01 0.39641892634E+01 0.37841775902E+01
 0.36771543727E+01 0.36414594184E+01 0.36766101162E+01 0.37828556030E+01 0.39602879849E+01
 0.42082052034E+01 0.45250805857E+01 0.49089806488E+01 0.53578268676E+01 0.58687561255E+01
 0.64361997031E+01 0.70491001109E+01 0.76884619586E+01 0.83266394886E+01 0.89292080601E+01
 0.94592597188E+01 0.98830435330E+01 0.10175409898E+02 0.10323557030E+02 0.10328007647E+02
 0.10200515491E+02 0.99596351270E+01 0.96256176227E+01 0.92165511402E+01 0.87469863994E+01
 0.82290425401E+01 0.76748912663E+01 0.70990757967E+01 0.65194218344E+01 0.59561067264E+01
 0.54293475334E+01 0.49567046198E+01 0.51852595033E+01 0.47099317410E+01 0.43171228128E+01
 0.40091846634E+01 0.37843054363E+01 0.36394080628E+01 0.35722394499E+01 0.35820206336E+01
 0.36689056551E+01 0.38331115740E+01 0.40745290922E+01 0.43930166389E+01 0.47888773469E+01
 0.52626455283E+01 0.58134848186E+01 0.64361997031E+01 0.71177811577E+01 0.78350238403E+01
 0.85546244127E+01 0.92362888075E+01 0.98382219883E+01 0.10323557853E+02 0.10666074922E+02
 0.10853761205E+02 0.10889214472E+02 0.10786383389E+02 0.10565830537E+02 0.10247942456E+02
 0.98478461044E+01 0.93762858700E+01 0.88414279388E+01 0.82528158635E+01 0.76249980721E+01
 0.69787789571E+01 0.63396438035E+01 0.57340684142E+01 0.60313710334E+01 0.54042766862E+01
 0.48591480973E+01 0.44067237833E+01 0.40493276738E+01 0.37843117489E+01 0.36076687255E+01
 0.35164365879E+01 0.35093636592E+01 0.35863360070E+01 0.37476496203E+01 0.39939434065E+01
 0.43267348470E+01 0.47486972393E+01 0.52626455283E+01 0.58687561255E+01 0.65605350481E+01
 0.73209760507E+01 0.81207060618E+01 0.89193945426E+01 0.96704798582E+01 0.10328007422E+02
 0.10853762761E+02 0.11222471919E+02 0.11420395314E+02 0.11455221354E+02 0.11354109223E+02
 0.11147219292E+02 0.10853764232E+02 0.10477508131E+02 0.10013847656E+02 0.94643216861E+01
 0.88403543942E+01 0.81571534172E+01 0.74395287765E+01 0.67196333406E+01 0.70825140597E+01
 0.63106220232E+01 0.56059484965E+01 0.49933541881E+01 0.44850825877E+01 0.40832369994E+01
 0.37841940280E+01 0.35828869983E+01 0.34754862310E+01 0.34601146127E+01 0.35363499879E+01
 0.37047381640E+01 0.39670271432E+01 0.43267348470E+01 0.47888773469E+01 0.53578268676E+01
 0.60332276186E+01 0.68050916324E+01 0.76500183318E+01 0.85304808980E+01 0.93981342893E+01
 0.10200513085E+02 0.10889214570E+02 0.11420397616E+02 0.11756827462E+02 0.11900613798E+02
 0.11888606239E+02 0.11771029778E+02 0.11587033479E+02 0.11347798680E+02 0.11035304921E+02
 0.10617762042E+02 0.10074444087E+02 0.94170776686E+01 0.86769582802E+01 0.78853770000E+01
 0.83004086169E+01 0.74151182029E+01 0.65615924620E+01 0.57828532688E+01 0.51076130249E+01
 0.45493530119E+01 0.41097407464E+01 0.37840084032E+01 0.35658662153E+01 0.34504663172E+01
 0.34352475612E+01 0.35196166235E+01 0.37047381640E+01 0.39939434065E+01 0.43930166389E+01
 0.49089806488E+01 0.55465462658E+01 0.63027243494E+01 0.71613937416E+01 0.80902186724E+01
 0.90418313120E+01 0.99596333205E+01 0.10786380330E+02 0.11455221977E+02 0.11900616753E+02
 0.12111300768E+02 0.12130886830E+02 0.12035961774E+02 0.11902597672E+02 0.11773672954E+02
 0.11640992356E+02 0.11451142361E+02 0.11133387663E+02 0.10637316941E+02 0.99632971587E+01
 0.91662981786E+01 0.96086040348E+01 0.86699822887E+01 0.77053451080E+01 0.67749336283E+01
 0.59282861203E+01 0.51975655628E+01 0.45971271416E+01 0.41279276949E+01 0.37838434594E+01
 0.35571979562E+01 0.34420499032E+01 0.34352475612E+01 0.35363499879E+01 0.37476496203E+01
 0.40745290922E+01 0.45250805857E+01 0.51075581253E+01 0.58252333597E+01 0.66698711483E+01
 0.76163224733E+01 0.86209688272E+01 0.96256193694E+01 0.10565827692E+02 0.11354105919E+02
 0.11888607512E+02 0.12130889935E+02 0.12119904269E+02 0.11955793536E+02 0.11762428473E+02
 0.11639841290E+02 0.11623983050E+02 0.11671466221E+02 0.11677714335E+02 0.11521751861E+02
 0.11118537653E+02 0.10457042263E+02 0.10876803681E+02 0.99895994288E+01 0.89813764761E+01
 0.79426785837E+01 0.69425814944E+01 0.60365729667E+01 0.52596583060E+01 0.46265655023E+01
 0.41371777944E+01 0.37837780464E+01 0.35571979562E+01 0.34504663172E+01 0.34601146127E+01
 0.35863360070E+01 0.38331115740E+01 0.42082052034E+01 0.47216956742E+01 0.53817631799E+01
 0.61879145840E+01 0.71237022861E+01 0.81521239612E+01 0.92165544656E+01 0.10247943636E+02
 0.11147215479E+02 0.11771026871E+02 0.12035963399E+02 0.11955795656E+02 0.11638684762E+02
 0.11254005046E+02 0.10975924262E+02 0.10920503701E+02 0.11100265301E+02 0.11417174608E+02
 0.11699386010E+02 0.11766893040E+02 0.11498850638E+02 0.11775283882E+02 0.11210787799E+02
 0.10297278134E+02 0.92241774484E+01 0.81185638164E+01 0.70581081972E+01 0.61033734151E+01
 0.52913634924E+01 0.46365102251E+01 0.41371777944E+01 0.37838434594E+01 0.35658662153E+01
 0.34754862310E+01 0.35093636592E+01 0.36689056551E+01 0.39602879849E+01 0.43937170155E+01
 0.49804704487E+01 0.57268036190E+01 0.66257076241E+01 0.76494954769E+01 0.87469866648E+01
 0.98478499468E+01 0.10853764043E+02 0.11587029236E+02 0.11902595928E+02 0.11762429530E+02
 0.11254004570E+02 0.10571814376E+02 0.99629834788E+01 0.96486426637E+01 0.97458668274E+01
 0.10221853397E+02 0.10902775492E+02 0.11535687933E+02 0.11877477767E+02 0.11883444646E+02
 0.11958522324E+02 0.11456057586E+02 0.10522041435E+02 0.93904759422E+01 0.82266833072E+01
 0.71170264790E+01 0.61259521037E+01 0.52913634924E+01 0.46265655023E+01 0.41279276949E+01
 0.37840084032E+01 0.35828869983E+01 0.35164365879E+01 0.35820206336E+01 0.37828556030E+01
 0.41276496168E+01 0.46287375439E+01 0.52973041327E+01 0.61353702396E+01 0.71264845069E+01
 0.82290388182E+01 0.93762878574E+01 0.10477511293E+02 0.11347796515E+02 0.11773669453E+02
 0.11639841394E+02 0.10975923460E+02 0.99629790132E+01 0.88951226308E+01 0.80993405493E+01
 0.78323045919E+01 0.81898427317E+01 0.90684116516E+01 0.10198736334E+02 0.11238306887E+02
 0.10881651348E+02 0.11828265434E+02 0.12067490497E+02 0.11615369459E+02 0.10658459994E+02
 0.94749593401E+01 0.82631591224E+01 0.71170264790E+01 0.61033734151E+01 0.52596583060E+01
 0.45971271416E+01 0.41097407464E+01 0.37841940280E+01 0.36076687255E+01 0.35722394499E+01
 0.36766101162E+01 0.39263214238E+01 0.43326797203E+01 0.49094040885E+01 0.56658439629E+01
 0.65972182761E+01 0.76748874064E+01 0.88414259043E+01 0.10013851042E+02 0.11035305730E+02
 0.11640988211E+02 0.11623981839E+02 0.10920505979E+02 0.96486390297E+01 0.80993318905E+01
 0.66732595767E+01 0.57705350170E+01 0.56628740947E+01 0.63968312473E+01 0.77727499905E+01
 0.94117907117E+01 0.86676519081E+01 0.10548535420E+02 0.11758453932E+02 0.12122550711E+02
 0.11693386391E+02 0.10704144763E+02 0.94749593401E+01 0.82266833072E+01 0.70581081972E+01
 0.60365729667E+01 0.51975655628E+01 0.45493530119E+01 0.40832369994E+01 0.37843117489E+01
 0.36394080628E+01 0.36414594184E+01 0.37911286554E+01 0.40966186742E+01 0.45715586802E+01
 0.52298977735E+01 0.60771082908E+01 0.70990757557E+01 0.82528112819E+01 0.94643225079E+01
 0.10617765548E+02 0.11451139283E+02 0.11671460841E+02 0.11100267594E+02 0.97458710162E+01
 0.78322982875E+01 0.57705238549E+01 0.40654366144E+01 0.31728418544E+01 0.33507014813E+01
 0.45660825178E+01 0.65027369047E+01 0.54346634261E+01 0.80889463322E+01 0.10313810316E+02
 0.11712640912E+02 0.12139017810E+02 0.11693386391E+02 0.10658459994E+02 0.93904759422E+01
 0.81185638164E+01 0.69425814944E+01 0.59282861203E+01 0.51076130249E+01 0.44850825877E+01
 0.40493276738E+01 0.37843054363E+01 0.36771543727E+01 0.37223420167E+01 0.39230030944E+01
 0.42900847331E+01 0.48389102628E+01 0.55821967881E+01 0.65194261028E+01 0.76249941028E+01
 0.88403509214E+01 0.10074448168E+02 0.11133389499E+02 0.11677706829E+02 0.11417169267E+02
 0.10221859236E+02 0.81898479252E+01 0.56628668280E+01 0.31728316342E+01 0.13147342535E+01
 0.57189091838E+00 0.11546103646E+01 0.29233559006E+01 0.16845494238E+01 0.47230832995E+01
 0.77728059755E+01 0.10229386742E+02 0.11712640912E+02 0.12122550711E+02 0.11615369459E+02
 0.10522041435E+02 0.92241774484E+01 0.79426785837E+01 0.67749336283E+01 0.57828532688E+01
 0.49933541881E+01 0.44067237833E+01 0.40091846634E+01 0.37841775902E+01 0.37198539700E+01
 0.38128323358E+01 0.40690457074E+01 0.45019714344E+01 0.51277000089E+01 0.59561122869E+01
 0.69787787899E+01 0.81571465235E+01 0.94170772529E+01 0.10637323628E+02 0.11521750684E+02
 0.11699375211E+02 0.10902771505E+02 0.90684194826E+01 0.63968361158E+01 0.33506961172E+01
 0.57188568203E+00 -.12810787694E+01 -.17336949058E+01 -.65699213624E+00 -.18504358337E+01
 0.10187826058E+01 0.44734276788E+01 0.77728059755E+01 0.10313810316E+02 0.11758453932E+02
 0.12067490497E+02 0.11456057586E+02 0.10297278134E+02 0.89813764761E+01 0.77053451080E+01
 0.65615924620E+01 0.56059484965E+01 0.48591480973E+01 0.43171228128E+01 0.39641892634E+01
 0.37839874995E+01 0.37663657336E+01 0.39105761762E+01 0.42254311441E+01 0.47264413083E+01
 0.54293495145E+01 0.63396480946E+01 0.74395235060E+01 0.86769506935E+01 0.99633008439E+01
 0.11118545378E+02 0.11766888883E+02 0.11535676685E+02 0.10198734570E+02 0.77727570619E+01
 0.45660857693E+01 0.11546097625E+01 -.17336922914E+01 -.34138140447E+01 -.34594822595E+01
 -.43832161792E+01 -.22669767014E+01 0.10187826058E+01 0.47230832995E+01 0.80889463322E+01
 0.10548535420E+02 0.11828265434E+02 0.11958522324E+02 0.11210787799E+02 0.99895994288E+01
 0.86699822887E+01 0.74151182029E+01 0.63106220232E+01 0.54042766862E+01 0.47099317410E+01
 0.42194240532E+01 0.39158595854E+01 0.37838231306E+01 0.38154536730E+01 0.40129185867E+01
 0.43877248163E+01 0.49566997970E+01 0.57340726821E+01 0.67196344441E+01 0.78853677318E+01
 0.91662923958E+01 0.10457049394E+02 0.11498857398E+02 0.11877472312E+02 0.11238298943E+02
 0.94117913947E+01 0.65027404465E+01 0.29233567939E+01 -.65698655679E+00 -.34594716325E+01
 -.48154780834E+01 -.43832285742E+01 -.37218285486E+01 -.14082762165E+01 0.19848853041E+01
 0.56784075764E+01 0.89263366302E+01 0.11202540434E+02 0.12286923970E+02 0.12256805953E+02
 0.11412288914E+02 0.10163691516E+02 0.88529480612E+01 0.76183135918E+01 0.65395753728E+01
 0.56599930407E+01 0.49911326819E+01 0.45245722897E+01 0.42444894345E+01 0.41371681079E+01
 0.41964875862E+01 0.44259500833E+01 0.48376009342E+01 0.54474904021E+01 0.62671801406E+01
 0.72918233604E+01 0.84877764529E+01 0.97852813646E+01 0.11072555962E+02 0.12067941029E+02
 0.12357579425E+02 0.11600988971E+02 0.96508213567E+01 0.66395819904E+01 0.30098990565E+01
 -.54182751316E+00 -.32243049929E+01 -.37218147052E+01 -.43832466760E+01 -.32243399978E+01
 -.54184005652E+00 0.30099025849E+01 0.66395725763E+01 0.96508147676E+01 0.11601015649E+02
 0.12357613910E+02 0.12067939378E+02 0.11072537426E+02 0.97852934155E+01 0.84878052891E+01
 0.72918222647E+01 0.62671599054E+01 0.54474962259E+01 0.48376233162E+01 0.44259454877E+01
 0.41964662232E+01 0.41371740469E+01 0.42445128885E+01 0.45245684457E+01 0.49911096297E+01
 0.56599944328E+01 0.65395926498E+01 0.76183022360E+01 0.88529161147E+01 0.10163685575E+02
 0.11412304491E+02 0.12256796536E+02 0.12286889321E+02 0.11202524114E+02 0.89263454640E+01
 0.56784107625E+01 0.19848820588E+01 -.14082633955E+01 -.14947914934E+01 -.33167810146E+01
 -.34595208347E+01 -.18901613838E+01 0.98903205656E+00 0.44849114289E+01 0.78400365946E+01
 0.10442190964E+02 0.11949624918E+02 0.12319171952E+02 0.11759155031E+02 0.10634981770E+02
 0.93366103198E+01 0.80698143155E+01 0.69281377403E+01 0.59696576769E+01 0.52180739211E+01
 0.46719884772E+01 0.43175716550E+01 0.41394852495E+01 0.41279262066E+01 0.42820014422E+01
 0.46100705614E+01 0.51269806315E+01 0.58475849428E+01 0.67763909915E+01 0.78949932088E+01
 0.91516947044E+01 0.10459059849E+02 0.11646777665E+02 0.12340404131E+02 0.12152337792E+02
 0.10834508882E+02 0.83822689013E+01 0.50927832824E+01 0.15489733557E+01 0.17609889279E+01
 -.79070824125E+00 -.20635489156E+01 -.17337310274E+01 0.10646608132E+00 0.29847180370E+01
 0.62151812019E+01 0.91143532131E+01 0.11178123653E+02 0.12172445732E+02 0.12137527454E+02
 0.11328679014E+02 0.10117996194E+02 0.88338729636E+01 0.76149707400E+01 0.65413556409E+01
 0.56583769802E+01 0.49800996086E+01 0.44999793436E+01 0.42030489084E+01 0.40753971786E+01
 0.41097401645E+01 0.43077131678E+01 0.46794586487E+01 0.52401971129E+01 0.60030780676E+01
 0.69684061465E+01 0.81114541021E+01 0.93736689859E+01 0.10662000214E+02 0.11777452685E+02
 0.12340681545E+02 0.12000186265E+02 0.10566313768E+02 0.81028534636E+01 0.49656253775E+01
 0.53111981821E+01 0.25883205235E+01 0.60731115711E+00 -.12763361638E+00 0.57186311044E+00
 0.25132856216E+01 0.51959921163E+01 0.79836480504E+01 0.10295931050E+02 0.11748510212E+02
 0.12212075146E+02 0.11797915082E+02 0.10790950633E+02 0.95460813885E+01 0.82960299431E+01
 0.71408233027E+01 0.61462097984E+01 0.53447349361E+01 0.47418679342E+01 0.43273003797E+01
 0.40860578603E+01 0.40062677678E+01 0.40832397548E+01 0.43207896994E+01 0.47302327654E+01
 0.53264719800E+01 0.61204345603E+01 0.71082481805E+01 0.82598221863E+01 0.95117630118E+01
 0.10767388141E+02 0.11811361085E+02 0.12280172704E+02 0.11867521732E+02 0.10442857320E+02
 0.81274240950E+01 0.84426575506E+01 0.60718339306E+01 0.39119421956E+01 0.25116026415E+01
 0.22428785921E+01 0.31728226750E+01 0.50430500319E+01 0.73655599559E+01 0.95860971117E+01
 0.11243515828E+02 0.12073254436E+02 0.12039936624E+02 0.11309305032E+02 0.10176761400E+02
 0.89411312794E+01 0.77435762212E+01 0.66652980628E+01 0.57570906042E+01 0.50395461110E+01
 0.45111390887E+01 0.41593509891E+01 0.39702281707E+01 0.39343118930E+01 0.40493374400E+01
 0.43207902262E+01 0.47604992421E+01 0.53824410302E+01 0.61950345743E+01 0.71906178759E+01
 0.83350591111E+01 0.95623224701E+01 0.10774986203E+02 0.11757318102E+02 0.12175982330E+02
 0.11774234676E+02 0.10475686372E+02 0.10640654054E+02 0.89847513638E+01 0.71279167814E+01
 0.55471738211E+01 0.46762228134E+01 0.47601313492E+01 0.57705221498E+01 0.74202829194E+01
 0.92679917201E+01 0.10861256549E+02 0.11861222283E+02 0.12113715478E+02 0.11661071962E+02
 0.10704332834E+02 0.95260441037E+01 0.83258706095E+01 0.71971350218E+01 0.62054446115E+01
 0.53871013409E+01 0.47523996192E+01 0.42947726292E+01 0.40010259307E+01 0.38590249831E+01
 0.38618225258E+01 0.40092019007E+01 0.43077123730E+01 0.47690605744E+01 0.54058306417E+01
 0.62239058581E+01 0.72125262376E+01 0.83350502972E+01 0.95249953142E+01 0.10687801248E+02
 0.11622781644E+02 0.12035658993E+02 0.11718907782E+02 0.11679637914E+02 0.10882964125E+02
 0.96514611077E+01 0.83195747275E+01 0.72763673994E+01 0.68393802413E+01 0.71444086016E+01
 0.80993324984E+01 0.94218269540E+01 0.10740108289E+02 0.11710514065E+02 0.12109158873E+02
 0.11876431876E+02 0.11112913765E+02 0.10034798506E+02 0.88676488890E+01 0.77231202106E+01
 0.66760285043E+01 0.57763319140E+01 0.50473298462E+01 0.44912407837E+01 0.40985093477E+01
 0.38565928799E+01 0.37556568253E+01 0.37910928525E+01 0.39642090895E+01 0.42819944669E+01
 0.47554879372E+01 0.53956032219E+01 0.62059034939E+01 0.71734208134E+01 0.82605772603E+01
 0.94024840184E+01 0.10510739568E+02 0.11412145274E+02 0.11856003990E+02 0.11625145897E+02
 0.11619774145E+02 0.11128762186E+02 0.10321741024E+02 0.94756627905E+01 0.88864877909E+01
 0.87661787534E+01 0.91665301757E+01 0.99629807004E+01 0.10903450852E+02 0.11697099214E+02
 0.12105130317E+02 0.12004109753E+02 0.11409329864E+02 0.10458629295E+02 0.93539351361E+01
 0.82264383937E+01 0.71542838442E+01 0.61970946716E+01 0.53902965464E+01 0.47464638969E+01
 0.42622185709E+01 0.39269158808E+01 0.37296425925E+01 0.36629999146E+01 0.37243288518E+01
 0.39158741415E+01 0.42444971383E+01 0.47201712177E+01 0.53520626054E+01 0.61418106127E+01
 0.70751945719E+01 0.81151664927E+01 0.92002078973E+01 0.10250074215E+02 0.11126898190E+02
 0.10767601129E+02 0.11327440592E+02 0.11497383004E+02 0.11300829159E+02 0.10878724517E+02
 0.10443594750E+02 0.10203178186E+02 0.10282363859E+02 0.10676233174E+02 0.11254008509E+02