   2   2   1   0
  0.1537565E+02  0.3645706E-09  0.3645706E-09  0.3645706E-09  0.5000000E-15
   1.0000000000000000E-004
  CAR 
 si-sym141                               
     23.62736656     -6.61969294  301      9.03131873      1.00000000
     -6.620  0.0000E+00  0.0000E+00
     -6.519  0.0000E+00  0.0000E+00
     -6.418  0.0000E+00  0.0000E+00
     -6.317  0.0000E+00  0.0000E+00
     -6.216  0.0000E+00  0.0000E+00
     -6.116  0.0000E+00  0.0000E+00
     -6.015  0.0000E+00  0.0000E+00
     -5.914  0.0000E+00  0.0000E+00
     -5.813  0.0000E+00  0.0000E+00
     -5.712  0.0000E+00  0.0000E+00
     -5.611  0.0000E+00  0.0000E+00
     -5.511  0.0000E+00  0.0000E+00
     -5.410  0.0000E+00  0.0000E+00
     -5.309  0.0000E+00  0.0000E+00
     -5.208  0.0000E+00  0.0000E+00
     -5.107  0.0000E+00  0.0000E+00
     -5.007  0.0000E+00  0.0000E+00
     -4.906  0.0000E+00  0.0000E+00
     -4.805  0.0000E+00  0.0000E+00
     -4.704  0.0000E+00  0.0000E+00
     -4.603  0.1037E-02  0.5691E-05
     -4.502  0.4850E-01  0.1996E-02
     -4.402  0.9149E-01  0.9860E-02
     -4.301  0.1131E+00  0.2023E-01
     -4.200  0.1312E+00  0.3238E-01
     -4.099  0.1581E+00  0.4698E-01
     -3.998  0.1729E+00  0.6377E-01
     -3.897  0.1820E+00  0.8159E-01
     -3.797  0.1959E+00  0.1006E+00
     -3.696  0.2080E+00  0.1210E+00
     -3.595  0.2216E+00  0.1426E+00
     -3.494  0.2368E+00  0.1658E+00
     -3.393  0.2485E+00  0.1903E+00
     -3.293  0.2564E+00  0.2157E+00
     -3.192  0.2641E+00  0.2420E+00
     -3.091  0.2742E+00  0.2691E+00
     -2.990  0.2849E+00  0.2973E+00
     -2.889  0.2941E+00  0.3264E+00
     -2.788  0.3039E+00  0.3566E+00
     -2.688  0.3130E+00  0.3877E+00
     -2.587  0.3219E+00  0.4197E+00
     -2.486  0.3319E+00  0.4526E+00
     -2.385  0.3416E+00  0.4866E+00
     -2.284  0.3542E+00  0.5216E+00
     -2.183  0.3708E+00  0.5581E+00
     -2.083  0.3809E+00  0.5961E+00
     -1.982  0.3853E+00  0.6347E+00
     -1.881  0.3992E+00  0.6743E+00
     -1.780  0.4028E+00  0.7148E+00
     -1.679  0.4044E+00  0.7555E+00
     -1.579  0.4051E+00  0.7963E+00
     -1.478  0.4187E+00  0.8376E+00
     -1.377  0.4105E+00  0.8802E+00
     -1.276  0.4067E+00  0.9213E+00
     -1.175  0.4084E+00  0.9623E+00
     -1.074  0.4158E+00  0.1004E+01
     -0.974  0.4278E+00  0.1047E+01
     -0.873  0.4324E+00  0.1090E+01
     -0.772  0.4436E+00  0.1134E+01
     -0.671  0.4529E+00  0.1179E+01
     -0.570  0.4617E+00  0.1225E+01
     -0.469  0.4839E+00  0.1273E+01
     -0.369  0.4872E+00  0.1322E+01
     -0.268  0.4877E+00  0.1371E+01
     -0.167  0.5019E+00  0.1421E+01
     -0.066  0.5057E+00  0.1472E+01
      0.035  0.5133E+00  0.1523E+01
      0.135  0.5220E+00  0.1576E+01
      0.236  0.5437E+00  0.1629E+01
      0.337  0.5575E+00  0.1685E+01
      0.438  0.5663E+00  0.1742E+01
      0.539  0.5808E+00  0.1799E+01
      0.640  0.6003E+00  0.1859E+01
      0.740  0.6410E+00  0.1921E+01
      0.841  0.6758E+00  0.1987E+01
      0.942  0.6858E+00  0.2057E+01
      1.043  0.6763E+00  0.2125E+01
      1.144  0.6880E+00  0.2193E+01
      1.245  0.7040E+00  0.2264E+01
      1.345  0.7206E+00  0.2335E+01
      1.446  0.7159E+00  0.2408E+01
      1.547  0.6630E+00  0.2478E+01
      1.648  0.6125E+00  0.2542E+01
      1.749  0.5658E+00  0.2602E+01
      1.849  0.5218E+00  0.2656E+01
      1.950  0.4859E+00  0.2707E+01
      2.051  0.4518E+00  0.2754E+01
      2.152  0.4005E+00  0.2796E+01
      2.253  0.4016E+00  0.2837E+01
      2.354  0.3948E+00  0.2877E+01
      2.454  0.3885E+00  0.2916E+01
      2.555  0.4253E+00  0.2956E+01
      2.656  0.5052E+00  0.3003E+01
      2.757  0.5851E+00  0.3058E+01
      2.858  0.6626E+00  0.3121E+01
      2.959  0.7448E+00  0.3193E+01
      3.059  0.7183E+00  0.3267E+01
      3.160  0.6551E+00  0.3337E+01
      3.261  0.6122E+00  0.3400E+01
      3.362  0.5749E+00  0.3460E+01
      3.463  0.5511E+00  0.3517E+01
      3.563  0.5272E+00  0.3571E+01
      3.664  0.5021E+00  0.3623E+01
      3.765  0.5204E+00  0.3674E+01
      3.866  0.5856E+00  0.3730E+01
      3.967  0.6486E+00  0.3792E+01
      4.068  0.7192E+00  0.3861E+01
      4.168  0.7565E+00  0.3936E+01
      4.269  0.7604E+00  0.4013E+01
      4.370  0.7419E+00  0.4089E+01
      4.471  0.7354E+00  0.4163E+01
      4.572  0.7446E+00  0.4238E+01
      4.673  0.7397E+00  0.4313E+01
      4.773  0.7406E+00  0.4387E+01
      4.874  0.7459E+00  0.4462E+01
      4.975  0.7494E+00  0.4537E+01
      5.076  0.7507E+00  0.4613E+01
      5.177  0.7602E+00  0.4689E+01
      5.277  0.7801E+00  0.4767E+01
      5.378  0.7917E+00  0.4846E+01
      5.479  0.8057E+00  0.4927E+01
      5.580  0.8143E+00  0.5008E+01
      5.681  0.8102E+00  0.5091E+01
      5.782  0.8192E+00  0.5173E+01
      5.882  0.8319E+00  0.5256E+01
      5.983  0.8415E+00  0.5340E+01
      6.084  0.8500E+00  0.5426E+01
      6.185  0.8662E+00  0.5512E+01
      6.286  0.8872E+00  0.5600E+01
      6.387  0.9220E+00  0.5691E+01
      6.487  0.9873E+00  0.5789E+01
      6.588  0.1024E+01  0.5890E+01
      6.689  0.1015E+01  0.5994E+01
      6.790  0.1036E+01  0.6096E+01
      6.891  0.1110E+01  0.6204E+01
      6.991  0.1160E+01  0.6319E+01
      7.092  0.1182E+01  0.6437E+01
      7.193  0.1183E+01  0.6557E+01
      7.294  0.1074E+01  0.6669E+01
      7.395  0.9850E+00  0.6773E+01
      7.496  0.9575E+00  0.6870E+01
      7.596  0.9036E+00  0.6965E+01
      7.697  0.8059E+00  0.7051E+01
      7.798  0.7264E+00  0.7128E+01
      7.899  0.6788E+00  0.7199E+01
      8.000  0.6339E+00  0.7264E+01
      8.101  0.6402E+00  0.7328E+01
      8.201  0.6641E+00  0.7394E+01
      8.302  0.7026E+00  0.7463E+01
      8.403  0.7297E+00  0.7535E+01
      8.504  0.7434E+00  0.7609E+01
      8.605  0.7420E+00  0.7684E+01
      8.705  0.7408E+00  0.7759E+01
      8.806  0.7386E+00  0.7834E+01
      8.907  0.7387E+00  0.7909E+01
      9.008  0.7285E+00  0.7983E+01
      9.109  0.7046E+00  0.8055E+01
      9.210  0.6938E+00  0.8126E+01
      9.310  0.6812E+00  0.8195E+01
      9.411  0.6908E+00  0.8264E+01
      9.512  0.7026E+00  0.8334E+01
      9.613  0.7199E+00  0.8406E+01
      9.714  0.7443E+00  0.8480E+01
      9.815  0.7420E+00  0.8555E+01
      9.915  0.7346E+00  0.8629E+01
     10.016  0.7031E+00  0.8702E+01
     10.117  0.6819E+00  0.8772E+01
     10.218  0.6494E+00  0.8839E+01
     10.319  0.6357E+00  0.8903E+01
     10.419  0.6763E+00  0.8969E+01
     10.520  0.7261E+00  0.9040E+01
     10.621  0.7595E+00  0.9114E+01
     10.722  0.7708E+00  0.9191E+01
     10.823  0.7796E+00  0.9270E+01
     10.924  0.7767E+00  0.9349E+01
     11.024  0.7518E+00  0.9426E+01
     11.125  0.7908E+00  0.9503E+01
     11.226  0.8459E+00  0.9586E+01
     11.327  0.8611E+00  0.9672E+01
     11.428  0.9116E+00  0.9761E+01
     11.529  0.9650E+00  0.9855E+01
     11.629  0.1027E+01  0.9956E+01
     11.730  0.1054E+01  0.1006E+02
     11.831  0.1080E+01  0.1017E+02
     11.932  0.1079E+01  0.1028E+02
     12.033  0.1076E+01  0.1039E+02
     12.133  0.1066E+01  0.1049E+02
     12.234  0.1068E+01  0.1060E+02
     12.335  0.1074E+01  0.1071E+02
     12.436  0.1057E+01  0.1082E+02
     12.537  0.1013E+01  0.1092E+02
     12.638  0.9606E+00  0.1102E+02
     12.738  0.9471E+00  0.1112E+02
     12.839  0.9498E+00  0.1121E+02
     12.940  0.9139E+00  0.1131E+02
     13.041  0.9113E+00  0.1140E+02
     13.142  0.9368E+00  0.1149E+02
     13.243  0.1001E+01  0.1159E+02
     13.343  0.1053E+01  0.1169E+02
     13.444  0.1090E+01  0.1180E+02
     13.545  0.1091E+01  0.1191E+02
     13.646  0.1095E+01  0.1202E+02
     13.747  0.1086E+01  0.1213E+02
     13.847  0.1059E+01  0.1224E+02
     13.948  0.1051E+01  0.1235E+02
     14.049  0.1048E+01  0.1245E+02
     14.150  0.1061E+01  0.1256E+02
     14.251  0.1117E+01  0.1267E+02
     14.352  0.1115E+01  0.1278E+02
     14.452  0.1072E+01  0.1289E+02
     14.553  0.1055E+01  0.1300E+02
     14.654  0.1063E+01  0.1310E+02
     14.755  0.1094E+01  0.1321E+02
     14.856  0.1143E+01  0.1333E+02
     14.957  0.1119E+01  0.1344E+02
     15.057  0.1067E+01  0.1355E+02
     15.158  0.1043E+01  0.1366E+02
     15.259  0.1011E+01  0.1376E+02
     15.360  0.9928E+00  0.1386E+02
     15.461  0.9718E+00  0.1396E+02
     15.561  0.9257E+00  0.1406E+02
     15.662  0.8804E+00  0.1415E+02
     15.763  0.8486E+00  0.1423E+02
     15.864  0.8194E+00  0.1432E+02
     15.965  0.8028E+00  0.1440E+02
     16.066  0.7911E+00  0.1448E+02
     16.166  0.7843E+00  0.1456E+02
     16.267  0.7672E+00  0.1464E+02
     16.368  0.7512E+00  0.1471E+02
     16.469  0.7407E+00  0.1479E+02
     16.570  0.7386E+00  0.1486E+02
     16.671  0.7187E+00  0.1494E+02
     16.771  0.6971E+00  0.1501E+02
     16.872  0.6660E+00  0.1508E+02
     16.973  0.6400E+00  0.1514E+02
     17.074  0.6299E+00  0.1521E+02
     17.175  0.6394E+00  0.1527E+02
     17.275  0.6289E+00  0.1534E+02
     17.376  0.5473E+00  0.1540E+02
     17.477  0.4807E+00  0.1545E+02
     17.578  0.4303E+00  0.1549E+02
     17.679  0.3851E+00  0.1553E+02
     17.780  0.3466E+00  0.1557E+02
     17.880  0.3083E+00  0.1560E+02
     17.981  0.2715E+00  0.1563E+02
     18.082  0.2484E+00  0.1566E+02
     18.183  0.2309E+00  0.1568E+02
     18.284  0.2155E+00  0.1571E+02
     18.385  0.2007E+00  0.1573E+02
     18.485  0.1875E+00  0.1575E+02
     18.586  0.1765E+00  0.1576E+02
     18.687  0.1675E+00  0.1578E+02
     18.788  0.1591E+00  0.1580E+02
     18.889  0.1553E+00  0.1581E+02
     18.989  0.1481E+00  0.1583E+02
     19.090  0.1359E+00  0.1584E+02
     19.191  0.1248E+00  0.1586E+02
     19.292  0.1172E+00  0.1587E+02
     19.393  0.1111E+00  0.1588E+02
     19.494  0.1043E+00  0.1589E+02
     19.594  0.9722E-01  0.1590E+02
     19.695  0.9056E-01  0.1591E+02
     19.796  0.8653E-01  0.1592E+02
     19.897  0.8181E-01  0.1593E+02
     19.998  0.7479E-01  0.1594E+02
     20.099  0.6998E-01  0.1594E+02
     20.199  0.6717E-01  0.1595E+02
     20.300  0.6139E-01  0.1596E+02
     20.401  0.5635E-01  0.1596E+02
     20.502  0.5093E-01  0.1597E+02
     20.603  0.4568E-01  0.1597E+02
     20.703  0.4134E-01  0.1598E+02
     20.804  0.3799E-01  0.1598E+02
     20.905  0.3542E-01  0.1599E+02
     21.006  0.3235E-01  0.1599E+02
     21.107  0.2842E-01  0.1599E+02
     21.208  0.2328E-01  0.1599E+02
     21.308  0.1635E-01  0.1600E+02
     21.409  0.1248E-01  0.1600E+02
     21.510  0.9300E-02  0.1600E+02
     21.611  0.1319E-01  0.1600E+02
     21.712  0.0000E+00  0.1600E+02
     21.813  0.0000E+00  0.1600E+02
     21.913  0.0000E+00  0.1600E+02
     22.014  0.0000E+00  0.1600E+02
     22.115  0.0000E+00  0.1600E+02
     22.216  0.0000E+00  0.1600E+02
     22.317  0.0000E+00  0.1600E+02
     22.417  0.0000E+00  0.1600E+02
     22.518  0.0000E+00  0.1600E+02
     22.619  0.0000E+00  0.1600E+02
     22.720  0.0000E+00  0.1600E+02
     22.821  0.0000E+00  0.1600E+02
     22.922  0.0000E+00  0.1600E+02
     23.022  0.0000E+00  0.1600E+02
     23.123  0.0000E+00  0.1600E+02
     23.224  0.0000E+00  0.1600E+02
     23.325  0.0000E+00  0.1600E+02
     23.426  0.0000E+00  0.1600E+02
     23.527  0.0000E+00  0.1600E+02
     23.627  0.0000E+00  0.1600E+02
     23.62736656     -6.61969294  301      9.03131873      1.00000000
     -6.620  0.0000E+00  0.0000E+00  0.0000E+00  0.0000E+00  0.0000E+00  0.0000E+00  0.0000E+00  0.0000E+00  0.0000E+00
     -6.519  0.0000E+00  0.0000E+00  0.0000E+00  0.0000E+00  0.0000E+00  0.0000E+00  0.0000E+00  0.0000E+00  0.0000E+00
     -6.418  0.0000E+00  0.0000E+00  0.0000E+00  0.0000E+00  0.0000E+00  0.0000E+00  0.0000E+00  0.0000E+00  0.0000E+00
     -6.317  0.0000E+00  0.0000E+00  0.0000E+00  0.0000E+00  0.0000E+00  0.0000E+00  0.0000E+00  0.0000E+00  0.0000E+00
     -6.216  0.0000E+00  0.0000E+00  0.0000E+00  0.0000E+00  0.0000E+00  0.0000E+00  0.0000E+00  0.0000E+00  0.0000E+00
     -6.116  0.0000E+00  0.0000E+00  0.0000E+00  0.0000E+00  0.0000E+00  0.0000E+00  0.0000E+00  0.0000E+00  0.0000E+00
     -6.015  0.0000E+00  0.0000E+00  0.0000E+00  0.0000E+00  0.0000E+00  0.0000E+00  0.0000E+00  0.0000E+00  0.0000E+00
     -5.914  0.0000E+00  0.0000E+00  0.0000E+00  0.0000E+00  0.0000E+00  0.0000E+00  0.0000E+00  0.0000E+00  0.0000E+00
     -5.813  0.0000E+00  0.0000E+00  0.0000E+00  0.0000E+00  0.0000E+00  0.0000E+00  0.0000E+00  0.0000E+00  0.0000E+00
     -5.712  0.0000E+00  0.0000E+00  0.0000E+00  0.0000E+00  0.0000E+00  0.0000E+00  0.0000E+00  0.0000E+00  0.0000E+00
     -5.611  0.0000E+00  0.0000E+00  0.0000E+00  0.0000E+00  0.0000E+00  0.0000E+00  0.0000E+00  0.0000E+00  0.0000E+00
     -5.511  0.0000E+00  0.0000E+00  0.0000E+00  0.0000E+00  0.0000E+00  0.0000E+00  0.0000E+00  0.0000E+00  0.0000E+00
     -5.410  0.0000E+00  0.0000E+00  0.0000E+00  0.0000E+00  0.0000E+00  0.0000E+00  0.0000E+00  0.0000E+00  0.0000E+00
     -5.309  0.0000E+00  0.0000E+00  0.0000E+00  0.0000E+00  0.0000E+00  0.0000E+00  0.0000E+00  0.0000E+00  0.0000E+00
     -5.208  0.0000E+00  0.0000E+00  0.0000E+00  0.0000E+00  0.0000E+00  0.0000E+00  0.0000E+00  0.0000E+00  0.0000E+00
     -5.107  0.0000E+00  0.0000E+00  0.0000E+00  0.0000E+00  0.0000E+00  0.0000E+00  0.0000E+00  0.0000E+00  0.0000E+00
     -5.007  0.0000E+00  0.0000E+00  0.0000E+00  0.0000E+00  0.0000E+00  0.0000E+00  0.0000E+00  0.0000E+00  0.0000E+00
     -4.906  0.0000E+00  0.0000E+00  0.0000E+00  0.0000E+00  0.0000E+00  0.0000E+00  0.0000E+00  0.0000E+00  0.0000E+00
     -4.805  0.0000E+00  0.0000E+00  0.0000E+00  0.0000E+00  0.0000E+00  0.0000E+00  0.0000E+00  0.0000E+00  0.0000E+00
     -4.704  0.0000E+00  0.0000E+00  0.0000E+00  0.0000E+00  0.0000E+00  0.0000E+00  0.0000E+00  0.0000E+00  0.0000E+00
     -4.603  0.2027E-03  0.4008E-06  0.5896E-06  0.5603E-06  0.0000E+00  0.0000E+00  0.0000E+00  0.0000E+00  0.0000E+00
     -4.502  0.9473E-02  0.2210E-04  0.3307E-04  0.3137E-04  0.0000E+00  0.0000E+00  0.0000E+00  0.0000E+00  0.0000E+00
     -4.402  0.1777E-01  0.7490E-04  0.1066E-03  0.1017E-03  0.0000E+00  0.0000E+00  0.0000E+00  0.0000E+00  0.0000E+00
     -4.301  0.2184E-01  0.1307E-03  0.1838E-03  0.1756E-03  0.0000E+00  0.0000E+00  0.0000E+00  0.0000E+00  0.0000E+00
     -4.200  0.2521E-01  0.1956E-03  0.2736E-03  0.2615E-03  0.0000E+00  0.0000E+00  0.0000E+00  0.0000E+00  0.0000E+00
     -4.099  0.3025E-01  0.2761E-03  0.3860E-03  0.3689E-03  0.0000E+00  0.0000E+00  0.0000E+00  0.0000E+00  0.0000E+00
     -3.998  0.3291E-01  0.3668E-03  0.4982E-03  0.4778E-03  0.0000E+00  0.0000E+00  0.0000E+00  0.0000E+00  0.0000E+00
     -3.897  0.3442E-01  0.4579E-03  0.6159E-03  0.5914E-03  0.0000E+00  0.0000E+00  0.0000E+00  0.0000E+00  0.0000E+00
     -3.797  0.3685E-01  0.5608E-03  0.7545E-03  0.7245E-03  0.0000E+00  0.0000E+00  0.0000E+00  0.0000E+00  0.0000E+00
     -3.696  0.3893E-01  0.6628E-03  0.8820E-03  0.8480E-03  0.0000E+00  0.0000E+00  0.0000E+00  0.0000E+00  0.0000E+00
     -3.595  0.4129E-01  0.7717E-03  0.1017E-02  0.9789E-03  0.0000E+00  0.0000E+00  0.0000E+00  0.0000E+00  0.0000E+00
     -3.494  0.4392E-01  0.8964E-03  0.1181E-02  0.1137E-02  0.0000E+00  0.0000E+00  0.0000E+00  0.0000E+00  0.0000E+00
     -3.393  0.4584E-01  0.1026E-02  0.1346E-02  0.1296E-02  0.0000E+00  0.0000E+00  0.0000E+00  0.0000E+00  0.0000E+00
     -3.293  0.4702E-01  0.1154E-02  0.1505E-02  0.1450E-02  0.0000E+00  0.0000E+00  0.0000E+00  0.0000E+00  0.0000E+00
     -3.192  0.4818E-01  0.1281E-02  0.1659E-02  0.1600E-02  0.0000E+00  0.0000E+00  0.0000E+00  0.0000E+00  0.0000E+00
     -3.091  0.4978E-01  0.1419E-02  0.1830E-02  0.1766E-02  0.0000E+00  0.0000E+00  0.0000E+00  0.0000E+00  0.0000E+00
     -2.990  0.5148E-01  0.1563E-02  0.2009E-02  0.1940E-02  0.0000E+00  0.0000E+00  0.0000E+00  0.0000E+00  0.0000E+00
     -2.889  0.5287E-01  0.1708E-02  0.2193E-02  0.2117E-02  0.0000E+00  0.0000E+00  0.0000E+00  0.0000E+00  0.0000E+00
     -2.788  0.5439E-01  0.1854E-02  0.2376E-02  0.2295E-02  0.0000E+00  0.0000E+00  0.0000E+00  0.0000E+00  0.0000E+00
     -2.688  0.5576E-01  0.2003E-02  0.2563E-02  0.2476E-02  0.0000E+00  0.0000E+00  0.0000E+00  0.0000E+00  0.0000E+00
     -2.587  0.5705E-01  0.2161E-02  0.2767E-02  0.2673E-02  0.0000E+00  0.0000E+00  0.0000E+00  0.0000E+00  0.0000E+00
     -2.486  0.5856E-01  0.2327E-02  0.2967E-02  0.2868E-02  0.0000E+00  0.0000E+00  0.0000E+00  0.0000E+00  0.0000E+00
     -2.385  0.5999E-01  0.2496E-02  0.3183E-02  0.3077E-02  0.0000E+00  0.0000E+00  0.0000E+00  0.0000E+00  0.0000E+00
     -2.284  0.6193E-01  0.2671E-02  0.3442E-02  0.3322E-02  0.0000E+00  0.0000E+00  0.0000E+00  0.0000E+00  0.0000E+00
     -2.183  0.6450E-01  0.2863E-02  0.3784E-02  0.3641E-02  0.0000E+00  0.0000E+00  0.0000E+00  0.0000E+00  0.0000E+00
     -2.083  0.6594E-01  0.3049E-02  0.4040E-02  0.3886E-02  0.0000E+00  0.0000E+00  0.0000E+00  0.0000E+00  0.0000E+00
     -1.982  0.6640E-01  0.3227E-02  0.4206E-02  0.4054E-02  0.0000E+00  0.0000E+00  0.0000E+00  0.0000E+00  0.0000E+00
     -1.881  0.6851E-01  0.3459E-02  0.4492E-02  0.4331E-02  0.0000E+00  0.0000E+00  0.0000E+00  0.0000E+00  0.0000E+00
     -1.780  0.6888E-01  0.3635E-02  0.4619E-02  0.4466E-02  0.0000E+00  0.0000E+00  0.0000E+00  0.0000E+00  0.0000E+00
     -1.679  0.6892E-01  0.3792E-02  0.4717E-02  0.4574E-02  0.0000E+00  0.0000E+00  0.0000E+00  0.0000E+00  0.0000E+00
     -1.579  0.6881E-01  0.3944E-02  0.4812E-02  0.4677E-02  0.0000E+00  0.0000E+00  0.0000E+00  0.0000E+00  0.0000E+00
     -1.478  0.7086E-01  0.4179E-02  0.5110E-02  0.4965E-02  0.0000E+00  0.0000E+00  0.0000E+00  0.0000E+00  0.0000E+00
     -1.377  0.6923E-01  0.4306E-02  0.5071E-02  0.4952E-02  0.0000E+00  0.0000E+00  0.0000E+00  0.0000E+00  0.0000E+00
     -1.276  0.6835E-01  0.4475E-02  0.5088E-02  0.4993E-02  0.0000E+00  0.0000E+00  0.0000E+00  0.0000E+00  0.0000E+00
     -1.175  0.6841E-01  0.4691E-02  0.5188E-02  0.5111E-02  0.0000E+00  0.0000E+00  0.0000E+00  0.0000E+00  0.0000E+00
     -1.074  0.6937E-01  0.4935E-02  0.5393E-02  0.5322E-02  0.0000E+00  0.0000E+00  0.0000E+00  0.0000E+00  0.0000E+00
     -0.974  0.7115E-01  0.5166E-02  0.5689E-02  0.5608E-02  0.0000E+00  0.0000E+00  0.0000E+00  0.0000E+00  0.0000E+00
     -0.873  0.7168E-01  0.5311E-02  0.5895E-02  0.5804E-02  0.0000E+00  0.0000E+00  0.0000E+00  0.0000E+00  0.0000E+00
     -0.772  0.7330E-01  0.5504E-02  0.6208E-02  0.6099E-02  0.0000E+00  0.0000E+00  0.0000E+00  0.0000E+00  0.0000E+00
     -0.671  0.7466E-01  0.5722E-02  0.6453E-02  0.6340E-02  0.0000E+00  0.0000E+00  0.0000E+00  0.0000E+00  0.0000E+00
     -0.570  0.7598E-01  0.5927E-02  0.6677E-02  0.6560E-02  0.0000E+00  0.0000E+00  0.0000E+00  0.0000E+00  0.0000E+00
     -0.469  0.7940E-01  0.6462E-02  0.7061E-02  0.6968E-02  0.0000E+00  0.0000E+00  0.0000E+00  0.0000E+00  0.0000E+00
     -0.369  0.7993E-01  0.6570E-02  0.7191E-02  0.7095E-02  0.0000E+00  0.0000E+00  0.0000E+00  0.0000E+00  0.0000E+00
     -0.268  0.7992E-01  0.6705E-02  0.7289E-02  0.7198E-02  0.0000E+00  0.0000E+00  0.0000E+00  0.0000E+00  0.0000E+00
     -0.167  0.8221E-01  0.6985E-02  0.7601E-02  0.7505E-02  0.0000E+00  0.0000E+00  0.0000E+00  0.0000E+00  0.0000E+00
     -0.066  0.8288E-01  0.7134E-02  0.7710E-02  0.7620E-02  0.0000E+00  0.0000E+00  0.0000E+00  0.0000E+00  0.0000E+00
      0.035  0.8421E-01  0.7322E-02  0.7878E-02  0.7791E-02  0.0000E+00  0.0000E+00  0.0000E+00  0.0000E+00  0.0000E+00
      0.135  0.8578E-01  0.7515E-02  0.8060E-02  0.7976E-02  0.0000E+00  0.0000E+00  0.0000E+00  0.0000E+00  0.0000E+00
      0.236  0.8952E-01  0.7803E-02  0.8507E-02  0.8398E-02  0.0000E+00  0.0000E+00  0.0000E+00  0.0000E+00  0.0000E+00
      0.337  0.9252E-01  0.8011E-02  0.8607E-02  0.8514E-02  0.0000E+00  0.0000E+00  0.0000E+00  0.0000E+00  0.0000E+00
      0.438  0.9425E-01  0.8250E-02  0.8752E-02  0.8674E-02  0.0000E+00  0.0000E+00  0.0000E+00  0.0000E+00  0.0000E+00
      0.539  0.9721E-01  0.8486E-02  0.8919E-02  0.8852E-02  0.0000E+00  0.0000E+00  0.0000E+00  0.0000E+00  0.0000E+00
      0.640  0.1012E+00  0.8757E-02  0.9124E-02  0.9067E-02  0.0000E+00  0.0000E+00  0.0000E+00  0.0000E+00  0.0000E+00
      0.740  0.1096E+00  0.9133E-02  0.9523E-02  0.9463E-02  0.0000E+00  0.0000E+00  0.0000E+00  0.0000E+00  0.0000E+00
      0.841  0.1168E+00  0.9597E-02  0.9800E-02  0.9768E-02  0.0000E+00  0.0000E+00  0.0000E+00  0.0000E+00  0.0000E+00
      0.942  0.1187E+00  0.1000E-01  0.9924E-02  0.9936E-02  0.0000E+00  0.0000E+00  0.0000E+00  0.0000E+00  0.0000E+00
      1.043  0.1167E+00  0.1024E-01  0.9951E-02  0.9996E-02  0.0000E+00  0.0000E+00  0.0000E+00  0.0000E+00  0.0000E+00
      1.144  0.1191E+00  0.1054E-01  0.1013E-01  0.1019E-01  0.0000E+00  0.0000E+00  0.0000E+00  0.0000E+00  0.0000E+00
      1.245  0.1226E+00  0.1081E-01  0.1035E-01  0.1042E-01  0.0000E+00  0.0000E+00  0.0000E+00  0.0000E+00  0.0000E+00
      1.345  0.1262E+00  0.1120E-01  0.1052E-01  0.1063E-01  0.0000E+00  0.0000E+00  0.0000E+00  0.0000E+00  0.0000E+00
      1.446  0.1257E+00  0.1134E-01  0.1045E-01  0.1059E-01  0.0000E+00  0.0000E+00  0.0000E+00  0.0000E+00  0.0000E+00
      1.547  0.1161E+00  0.1048E-01  0.1005E-01  0.1012E-01  0.0000E+00  0.0000E+00  0.0000E+00  0.0000E+00  0.0000E+00
      1.648  0.1069E+00  0.9711E-02  0.9620E-02  0.9634E-02  0.0000E+00  0.0000E+00  0.0000E+00  0.0000E+00  0.0000E+00
      1.749  0.9823E-01  0.9029E-02  0.9220E-02  0.9191E-02  0.0000E+00  0.0000E+00  0.0000E+00  0.0000E+00  0.0000E+00
      1.849  0.8989E-01  0.8493E-02  0.8847E-02  0.8792E-02  0.0000E+00  0.0000E+00  0.0000E+00  0.0000E+00  0.0000E+00
      1.950  0.8289E-01  0.8110E-02  0.8592E-02  0.8517E-02  0.0000E+00  0.0000E+00  0.0000E+00  0.0000E+00  0.0000E+00
      2.051  0.7630E-01  0.7726E-02  0.8319E-02  0.8227E-02  0.0000E+00  0.0000E+00  0.0000E+00  0.0000E+00  0.0000E+00
      2.152  0.6668E-01  0.7180E-02  0.7661E-02  0.7587E-02  0.0000E+00  0.0000E+00  0.0000E+00  0.0000E+00  0.0000E+00
      2.253  0.6620E-01  0.7339E-02  0.7978E-02  0.7879E-02  0.0000E+00  0.0000E+00  0.0000E+00  0.0000E+00  0.0000E+00
      2.354  0.6452E-01  0.7474E-02  0.8035E-02  0.7948E-02  0.0000E+00  0.0000E+00  0.0000E+00  0.0000E+00  0.0000E+00
      2.454  0.5851E-01  0.7988E-02  0.9237E-02  0.9043E-02  0.0000E+00  0.0000E+00  0.0000E+00  0.0000E+00  0.0000E+00
      2.555  0.6190E-01  0.9678E-02  0.1034E-01  0.1024E-01  0.0000E+00  0.0000E+00  0.0000E+00  0.0000E+00  0.0000E+00
      2.656  0.6885E-01  0.1302E-01  0.1293E-01  0.1295E-01  0.0000E+00  0.0000E+00  0.0000E+00  0.0000E+00  0.0000E+00
      2.757  0.7617E-01  0.1619E-01  0.1553E-01  0.1563E-01  0.0000E+00  0.0000E+00  0.0000E+00  0.0000E+00  0.0000E+00
      2.858  0.8395E-01  0.1897E-01  0.1807E-01  0.1821E-01  0.0000E+00  0.0000E+00  0.0000E+00  0.0000E+00  0.0000E+00
      2.959  0.9301E-01  0.2127E-01  0.2097E-01  0.2102E-01  0.0000E+00  0.0000E+00  0.0000E+00  0.0000E+00  0.0000E+00
      3.059  0.8646E-01  0.2100E-01  0.2111E-01  0.2109E-01  0.0000E+00  0.0000E+00  0.0000E+00  0.0000E+00  0.0000E+00
      3.160  0.7663E-01  0.1925E-01  0.2009E-01  0.1996E-01  0.0000E+00  0.0000E+00  0.0000E+00  0.0000E+00  0.0000E+00
      3.261  0.6961E-01  0.1775E-01  0.1971E-01  0.1941E-01  0.0000E+00  0.0000E+00  0.0000E+00  0.0000E+00  0.0000E+00
      3.362  0.6345E-01  0.1639E-01  0.1944E-01  0.1897E-01  0.0000E+00  0.0000E+00  0.0000E+00  0.0000E+00  0.0000E+00
      3.463  0.5917E-01  0.1552E-01  0.1944E-01  0.1883E-01  0.0000E+00  0.0000E+00  0.0000E+00  0.0000E+00  0.0000E+00
      3.563  0.5540E-01  0.1467E-01  0.1924E-01  0.1853E-01  0.0000E+00  0.0000E+00  0.0000E+00  0.0000E+00  0.0000E+00
      3.664  0.5069E-01  0.1387E-01  0.1910E-01  0.1829E-01  0.0000E+00  0.0000E+00  0.0000E+00  0.0000E+00  0.0000E+00
      3.765  0.4875E-01  0.1554E-01  0.2030E-01  0.1956E-01  0.0000E+00  0.0000E+00  0.0000E+00  0.0000E+00  0.0000E+00
      3.866  0.4981E-01  0.1957E-01  0.2310E-01  0.2255E-01  0.0000E+00  0.0000E+00  0.0000E+00  0.0000E+00  0.0000E+00
      3.967  0.5123E-01  0.2386E-01  0.2544E-01  0.2520E-01  0.0000E+00  0.0000E+00  0.0000E+00  0.0000E+00  0.0000E+00
      4.068  0.5333E-01  0.2848E-01  0.2804E-01  0.2811E-01  0.0000E+00  0.0000E+00  0.0000E+00  0.0000E+00  0.0000E+00
      4.168  0.5354E-01  0.3120E-01  0.2956E-01  0.2982E-01  0.0000E+00  0.0000E+00  0.0000E+00  0.0000E+00  0.0000E+00
      4.269  0.5291E-01  0.3131E-01  0.3021E-01  0.3038E-01  0.0000E+00  0.0000E+00  0.0000E+00  0.0000E+00  0.0000E+00
      4.370  0.5178E-01  0.3020E-01  0.2990E-01  0.2995E-01  0.0000E+00  0.0000E+00  0.0000E+00  0.0000E+00  0.0000E+00
      4.471  0.5108E-01  0.2998E-01  0.2991E-01  0.2992E-01  0.0000E+00  0.0000E+00  0.0000E+00  0.0000E+00  0.0000E+00
      4.572  0.5075E-01  0.3084E-01  0.3045E-01  0.3051E-01  0.0000E+00  0.0000E+00  0.0000E+00  0.0000E+00  0.0000E+00
      4.673  0.4980E-01  0.3065E-01  0.3063E-01  0.3063E-01  0.0000E+00  0.0000E+00  0.0000E+00  0.0000E+00  0.0000E+00
      4.773  0.4917E-01  0.3077E-01  0.3101E-01  0.3097E-01  0.0000E+00  0.0000E+00  0.0000E+00  0.0000E+00  0.0000E+00
      4.874  0.4870E-01  0.3108E-01  0.3160E-01  0.3151E-01  0.0000E+00  0.0000E+00  0.0000E+00  0.0000E+00  0.0000E+00
      4.975  0.4815E-01  0.3133E-01  0.3210E-01  0.3198E-01  0.0000E+00  0.0000E+00  0.0000E+00  0.0000E+00  0.0000E+00
      5.076  0.4750E-01  0.3153E-01  0.3250E-01  0.3235E-01  0.0000E+00  0.0000E+00  0.0000E+00  0.0000E+00  0.0000E+00
      5.177  0.4722E-01  0.3210E-01  0.3328E-01  0.3310E-01  0.0000E+00  0.0000E+00  0.0000E+00  0.0000E+00  0.0000E+00
      5.277  0.4702E-01  0.3351E-01  0.3439E-01  0.3426E-01  0.0000E+00  0.0000E+00  0.0000E+00  0.0000E+00  0.0000E+00
      5.378  0.4660E-01  0.3444E-01  0.3521E-01  0.3509E-01  0.0000E+00  0.0000E+00  0.0000E+00  0.0000E+00  0.0000E+00
      5.479  0.4642E-01  0.3546E-01  0.3616E-01  0.3605E-01  0.0000E+00  0.0000E+00  0.0000E+00  0.0000E+00  0.0000E+00
      5.580  0.4608E-01  0.3596E-01  0.3707E-01  0.3690E-01  0.0000E+00  0.0000E+00  0.0000E+00  0.0000E+00  0.0000E+00
      5.681  0.4383E-01  0.3595E-01  0.3772E-01  0.3744E-01  0.0000E+00  0.0000E+00  0.0000E+00  0.0000E+00  0.0000E+00
      5.782  0.4286E-01  0.3663E-01  0.3876E-01  0.3843E-01  0.0000E+00  0.0000E+00  0.0000E+00  0.0000E+00  0.0000E+00
      5.882  0.4180E-01  0.3751E-01  0.3996E-01  0.3958E-01  0.0000E+00  0.0000E+00  0.0000E+00  0.0000E+00  0.0000E+00
      5.983  0.4041E-01  0.3830E-01  0.4102E-01  0.4060E-01  0.0000E+00  0.0000E+00  0.0000E+00  0.0000E+00  0.0000E+00
      6.084  0.3902E-01  0.3896E-01  0.4215E-01  0.4165E-01  0.0000E+00  0.0000E+00  0.0000E+00  0.0000E+00  0.0000E+00
      6.185  0.3797E-01  0.3995E-01  0.4370E-01  0.4311E-01  0.0000E+00  0.0000E+00  0.0000E+00  0.0000E+00  0.0000E+00
      6.286  0.3699E-01  0.4109E-01  0.4562E-01  0.4492E-01  0.0000E+00  0.0000E+00  0.0000E+00  0.0000E+00  0.0000E+00
      6.387  0.3643E-01  0.4289E-01  0.4844E-01  0.4757E-01  0.0000E+00  0.0000E+00  0.0000E+00  0.0000E+00  0.0000E+00
      6.487  0.3585E-01  0.4520E-01  0.5427E-01  0.5286E-01  0.0000E+00  0.0000E+00  0.0000E+00  0.0000E+00  0.0000E+00
      6.588  0.3399E-01  0.4750E-01  0.5807E-01  0.5643E-01  0.0000E+00  0.0000E+00  0.0000E+00  0.0000E+00  0.0000E+00
      6.689  0.3220E-01  0.4835E-01  0.5757E-01  0.5614E-01  0.0000E+00  0.0000E+00  0.0000E+00  0.0000E+00  0.0000E+00
      6.790  0.3115E-01  0.5056E-01  0.5880E-01  0.5752E-01  0.0000E+00  0.0000E+00  0.0000E+00  0.0000E+00  0.0000E+00
      6.891  0.3120E-01  0.5608E-01  0.6323E-01  0.6212E-01  0.0000E+00  0.0000E+00  0.0000E+00  0.0000E+00  0.0000E+00
      6.991  0.3068E-01  0.5964E-01  0.6666E-01  0.6557E-01  0.0000E+00  0.0000E+00  0.0000E+00  0.0000E+00  0.0000E+00
      7.092  0.2978E-01  0.6124E-01  0.6865E-01  0.6750E-01  0.0000E+00  0.0000E+00  0.0000E+00  0.0000E+00  0.0000E+00
      7.193  0.2879E-01  0.6147E-01  0.6941E-01  0.6818E-01  0.0000E+00  0.0000E+00  0.0000E+00  0.0000E+00  0.0000E+00
      7.294  0.2657E-01  0.5477E-01  0.6342E-01  0.6207E-01  0.0000E+00  0.0000E+00  0.0000E+00  0.0000E+00  0.0000E+00
      7.395  0.2431E-01  0.4975E-01  0.5850E-01  0.5714E-01  0.0000E+00  0.0000E+00  0.0000E+00  0.0000E+00  0.0000E+00
      7.496  0.2274E-01  0.4801E-01  0.5781E-01  0.5629E-01  0.0000E+00  0.0000E+00  0.0000E+00  0.0000E+00  0.0000E+00
      7.596  0.2121E-01  0.4570E-01  0.5435E-01  0.5301E-01  0.0000E+00  0.0000E+00  0.0000E+00  0.0000E+00  0.0000E+00
      7.697  0.1990E-01  0.4094E-01  0.4755E-01  0.4652E-01  0.0000E+00  0.0000E+00  0.0000E+00  0.0000E+00  0.0000E+00
      7.798  0.1869E-01  0.3740E-01  0.4170E-01  0.4104E-01  0.0000E+00  0.0000E+00  0.0000E+00  0.0000E+00  0.0000E+00
      7.899  0.1862E-01  0.3488E-01  0.3816E-01  0.3765E-01  0.0000E+00  0.0000E+00  0.0000E+00  0.0000E+00  0.0000E+00
      8.000  0.1954E-01  0.3233E-01  0.3446E-01  0.3413E-01  0.0000E+00  0.0000E+00  0.0000E+00  0.0000E+00  0.0000E+00
      8.101  0.2156E-01  0.3244E-01  0.3433E-01  0.3403E-01  0.0000E+00  0.0000E+00  0.0000E+00  0.0000E+00  0.0000E+00
      8.201  0.2408E-01  0.3355E-01  0.3523E-01  0.3497E-01  0.0000E+00  0.0000E+00  0.0000E+00  0.0000E+00  0.0000E+00
      8.302  0.2727E-01  0.3565E-01  0.3678E-01  0.3660E-01  0.0000E+00  0.0000E+00  0.0000E+00  0.0000E+00  0.0000E+00
      8.403  0.2986E-01  0.3705E-01  0.3778E-01  0.3767E-01  0.0000E+00  0.0000E+00  0.0000E+00  0.0000E+00  0.0000E+00
      8.504  0.3115E-01  0.3804E-01  0.3808E-01  0.3807E-01  0.0000E+00  0.0000E+00  0.0000E+00  0.0000E+00  0.0000E+00
      8.605  0.3170E-01  0.3836E-01  0.3739E-01  0.3754E-01  0.0000E+00  0.0000E+00  0.0000E+00  0.0000E+00  0.0000E+00
      8.705  0.3209E-01  0.3884E-01  0.3669E-01  0.3703E-01  0.0000E+00  0.0000E+00  0.0000E+00  0.0000E+00  0.0000E+00
      8.806  0.3240E-01  0.3943E-01  0.3578E-01  0.3635E-01  0.0000E+00  0.0000E+00  0.0000E+00  0.0000E+00  0.0000E+00
      8.907  0.3298E-01  0.3980E-01  0.3508E-01  0.3582E-01  0.0000E+00  0.0000E+00  0.0000E+00  0.0000E+00  0.0000E+00
      9.008  0.3239E-01  0.3950E-01  0.3412E-01  0.3496E-01  0.0000E+00  0.0000E+00  0.0000E+00  0.0000E+00  0.0000E+00
      9.109  0.3169E-01  0.3858E-01  0.3234E-01  0.3331E-01  0.0000E+00  0.0000E+00  0.0000E+00  0.0000E+00  0.0000E+00