   2   2   1   0
  0.1537565E+02  0.3645706E-09  0.3645706E-09  0.3645706E-09  0.5000000E-15
   1.0000000000000000E-004
  CAR 
 POSCAR-si-sym141                        
     23.62774219     -6.61963243  301      9.03140078      1.00000000
     -6.620  0.0000E+00  0.0000E+00
     -6.519  0.0000E+00  0.0000E+00
     -6.418  0.0000E+00  0.0000E+00
     -6.317  0.0000E+00  0.0000E+00
     -6.216  0.0000E+00  0.0000E+00
     -6.116  0.0000E+00  0.0000E+00
     -6.015  0.0000E+00  0.0000E+00
     -5.914  0.0000E+00  0.0000E+00
     -5.813  0.0000E+00  0.0000E+00
     -5.712  0.0000E+00  0.0000E+00
     -5.611  0.0000E+00  0.0000E+00
     -5.511  0.0000E+00  0.0000E+00
     -5.410  0.0000E+00  0.0000E+00
     -5.309  0.0000E+00  0.0000E+00
     -5.208  0.0000E+00  0.0000E+00
     -5.107  0.0000E+00  0.0000E+00
     -5.006  0.0000E+00  0.0000E+00
     -4.906  0.0000E+00  0.0000E+00
     -4.805  0.0000E+00  0.0000E+00
     -4.704  0.0000E+00  0.0000E+00
     -4.603  0.1039E-02  0.5713E-05
     -4.502  0.4852E-01  0.1997E-02
     -4.401  0.9150E-01  0.9862E-02
     -4.301  0.1131E+00  0.2023E-01
     -4.200  0.1312E+00  0.3238E-01
     -4.099  0.1581E+00  0.4698E-01
     -3.998  0.1729E+00  0.6377E-01
     -3.897  0.1820E+00  0.8159E-01
     -3.797  0.1959E+00  0.1006E+00
     -3.696  0.2080E+00  0.1210E+00
     -3.595  0.2216E+00  0.1426E+00
     -3.494  0.2368E+00  0.1658E+00
     -3.393  0.2485E+00  0.1903E+00
     -3.292  0.2564E+00  0.2158E+00
     -3.192  0.2641E+00  0.2420E+00
     -3.091  0.2742E+00  0.2691E+00
     -2.990  0.2849E+00  0.2973E+00
     -2.889  0.2941E+00  0.3264E+00
     -2.788  0.3039E+00  0.3566E+00
     -2.687  0.3130E+00  0.3877E+00
     -2.587  0.3219E+00  0.4197E+00
     -2.486  0.3319E+00  0.4527E+00
     -2.385  0.3416E+00  0.4866E+00
     -2.284  0.3542E+00  0.5217E+00
     -2.183  0.3708E+00  0.5581E+00
     -2.083  0.3809E+00  0.5961E+00
     -1.982  0.3853E+00  0.6348E+00
     -1.881  0.3992E+00  0.6743E+00
     -1.780  0.4028E+00  0.7148E+00
     -1.679  0.4044E+00  0.7555E+00
     -1.578  0.4051E+00  0.7963E+00
     -1.478  0.4188E+00  0.8376E+00
     -1.377  0.4105E+00  0.8803E+00
     -1.276  0.4067E+00  0.9213E+00
     -1.175  0.4084E+00  0.9623E+00
     -1.074  0.4158E+00  0.1004E+01
     -0.973  0.4278E+00  0.1047E+01
     -0.873  0.4324E+00  0.1090E+01
     -0.772  0.4436E+00  0.1134E+01
     -0.671  0.4529E+00  0.1179E+01
     -0.570  0.4617E+00  0.1225E+01
     -0.469  0.4839E+00  0.1273E+01
     -0.369  0.4872E+00  0.1322E+01
     -0.268  0.4877E+00  0.1371E+01
     -0.167  0.5019E+00  0.1421E+01
     -0.066  0.5057E+00  0.1472E+01
      0.035  0.5133E+00  0.1523E+01
      0.136  0.5220E+00  0.1576E+01
      0.236  0.5438E+00  0.1629E+01
      0.337  0.5575E+00  0.1685E+01
      0.438  0.5663E+00  0.1742E+01
      0.539  0.5808E+00  0.1799E+01
      0.640  0.6003E+00  0.1859E+01
      0.741  0.6412E+00  0.1921E+01
      0.841  0.6758E+00  0.1987E+01
      0.942  0.6858E+00  0.2057E+01
      1.043  0.6763E+00  0.2125E+01
      1.144  0.6880E+00  0.2193E+01
      1.245  0.7040E+00  0.2264E+01
      1.346  0.7206E+00  0.2336E+01
      1.446  0.7159E+00  0.2408E+01
      1.547  0.6629E+00  0.2478E+01
      1.648  0.6125E+00  0.2542E+01
      1.749  0.5658E+00  0.2602E+01
      1.850  0.5218E+00  0.2656E+01
      1.950  0.4859E+00  0.2707E+01
      2.051  0.4518E+00  0.2754E+01
      2.152  0.4005E+00  0.2796E+01
      2.253  0.4016E+00  0.2837E+01
      2.354  0.3948E+00  0.2877E+01
      2.455  0.3885E+00  0.2916E+01
      2.555  0.4254E+00  0.2956E+01
      2.656  0.5053E+00  0.3003E+01
      2.757  0.5852E+00  0.3058E+01
      2.858  0.6626E+00  0.3121E+01
      2.959  0.7448E+00  0.3193E+01
      3.060  0.7182E+00  0.3268E+01
      3.160  0.6551E+00  0.3337E+01
      3.261  0.6121E+00  0.3401E+01
      3.362  0.5749E+00  0.3460E+01
      3.463  0.5511E+00  0.3517E+01
      3.564  0.5272E+00  0.3571E+01
      3.664  0.5021E+00  0.3623E+01
      3.765  0.5205E+00  0.3674E+01
      3.866  0.5856E+00  0.3730E+01
      3.967  0.6486E+00  0.3792E+01
      4.068  0.7192E+00  0.3861E+01
      4.169  0.7565E+00  0.3936E+01
      4.269  0.7604E+00  0.4013E+01
      4.370  0.7418E+00  0.4089E+01
      4.471  0.7354E+00  0.4163E+01
      4.572  0.7445E+00  0.4238E+01
      4.673  0.7397E+00  0.4313E+01
      4.774  0.7406E+00  0.4387E+01
      4.874  0.7459E+00  0.4462E+01
      4.975  0.7494E+00  0.4538E+01
      5.076  0.7507E+00  0.4613E+01
      5.177  0.7602E+00  0.4689E+01
      5.278  0.7801E+00  0.4767E+01
      5.378  0.7918E+00  0.4846E+01
      5.479  0.8057E+00  0.4927E+01
      5.580  0.8143E+00  0.5009E+01
      5.681  0.8102E+00  0.5091E+01
      5.782  0.8192E+00  0.5173E+01
      5.883  0.8319E+00  0.5256E+01
      5.983  0.8415E+00  0.5341E+01
      6.084  0.8500E+00  0.5426E+01
      6.185  0.8663E+00  0.5512E+01
      6.286  0.8872E+00  0.5601E+01
      6.387  0.9221E+00  0.5692E+01
      6.488  0.9873E+00  0.5789E+01
      6.588  0.1024E+01  0.5891E+01
      6.689  0.1015E+01  0.5994E+01
      6.790  0.1036E+01  0.6096E+01
      6.891  0.1110E+01  0.6204E+01
      6.992  0.1160E+01  0.6319E+01
      7.093  0.1182E+01  0.6437E+01
      7.193  0.1183E+01  0.6557E+01
      7.294  0.1074E+01  0.6669E+01
      7.395  0.9849E+00  0.6773E+01
      7.496  0.9575E+00  0.6870E+01
      7.597  0.9035E+00  0.6965E+01
      7.697  0.8058E+00  0.7051E+01
      7.798  0.7263E+00  0.7128E+01
      7.899  0.6787E+00  0.7199E+01
      8.000  0.6339E+00  0.7264E+01
      8.101  0.6402E+00  0.7329E+01
      8.202  0.6642E+00  0.7394E+01
      8.302  0.7026E+00  0.7463E+01
      8.403  0.7295E+00  0.7535E+01
      8.504  0.7434E+00  0.7610E+01
      8.605  0.7420E+00  0.7684E+01
      8.706  0.7409E+00  0.7759E+01
      8.807  0.7425E+00  0.7834E+01
      8.907  0.7387E+00  0.7909E+01
      9.008  0.7285E+00  0.7983E+01
      9.109  0.7046E+00  0.8055E+01
      9.210  0.6938E+00  0.8126E+01
      9.311  0.6812E+00  0.8195E+01
      9.411  0.6908E+00  0.8264E+01
      9.512  0.7027E+00  0.8334E+01
      9.613  0.7199E+00  0.8406E+01
      9.714  0.7443E+00  0.8480E+01
      9.815  0.7420E+00  0.8555E+01
      9.916  0.7346E+00  0.8630E+01
     10.016  0.7031E+00  0.8702E+01
     10.117  0.6818E+00  0.8772E+01
     10.218  0.6494E+00  0.8839E+01
     10.319  0.6357E+00  0.8903E+01
     10.420  0.6764E+00  0.8969E+01
     10.521  0.7262E+00  0.9040E+01
     10.621  0.7596E+00  0.9114E+01
     10.722  0.7710E+00  0.9191E+01
     10.823  0.7795E+00  0.9270E+01
     10.924  0.7766E+00  0.9349E+01
     11.025  0.7517E+00  0.9426E+01
     11.125  0.7910E+00  0.9503E+01
     11.226  0.8459E+00  0.9586E+01
     11.327  0.8611E+00  0.9672E+01
     11.428  0.9117E+00  0.9761E+01
     11.529  0.9651E+00  0.9856E+01
     11.630  0.1027E+01  0.9956E+01
     11.730  0.1054E+01  0.1006E+02
     11.831  0.1080E+01  0.1017E+02
     11.932  0.1079E+01  0.1028E+02
     12.033  0.1076E+01  0.1039E+02
     12.134  0.1066E+01  0.1049E+02
     12.235  0.1068E+01  0.1060E+02
     12.335  0.1074E+01  0.1071E+02
     12.436  0.1057E+01  0.1082E+02
     12.537  0.1013E+01  0.1092E+02
     12.638  0.9606E+00  0.1102E+02
     12.739  0.9471E+00  0.1112E+02
     12.840  0.9497E+00  0.1121E+02
     12.940  0.9138E+00  0.1131E+02
     13.041  0.9113E+00  0.1140E+02
     13.142  0.9368E+00  0.1149E+02
     13.243  0.1001E+01  0.1159E+02
     13.344  0.1053E+01  0.1169E+02
     13.444  0.1090E+01  0.1180E+02
     13.545  0.1091E+01  0.1191E+02
     13.646  0.1095E+01  0.1202E+02
     13.747  0.1086E+01  0.1213E+02
     13.848  0.1059E+01  0.1224E+02
     13.949  0.1051E+01  0.1235E+02
     14.049  0.1048E+01  0.1245E+02
     14.150  0.1061E+01  0.1256E+02
     14.251  0.1117E+01  0.1267E+02
     14.352  0.1114E+01  0.1278E+02
     14.453  0.1072E+01  0.1289E+02
     14.554  0.1055E+01  0.1300E+02
     14.654  0.1063E+01  0.1310E+02
     14.755  0.1094E+01  0.1321E+02
     14.856  0.1143E+01  0.1333E+02
     14.957  0.1119E+01  0.1344E+02
     15.058  0.1067E+01  0.1355E+02
     15.158  0.1042E+01  0.1366E+02
     15.259  0.1011E+01  0.1376E+02
     15.360  0.9926E+00  0.1386E+02
     15.461  0.9719E+00  0.1396E+02
     15.562  0.9258E+00  0.1406E+02
     15.663  0.8807E+00  0.1415E+02
     15.763  0.8486E+00  0.1423E+02
     15.864  0.8194E+00  0.1432E+02
     15.965  0.8027E+00  0.1440E+02
     16.066  0.7911E+00  0.1448E+02
     16.167  0.7843E+00  0.1456E+02
     16.268  0.7671E+00  0.1464E+02
     16.368  0.7511E+00  0.1471E+02
     16.469  0.7405E+00  0.1479E+02
     16.570  0.7384E+00  0.1486E+02
     16.671  0.7184E+00  0.1494E+02
     16.772  0.6967E+00  0.1501E+02
     16.872  0.6654E+00  0.1508E+02
     16.973  0.6392E+00  0.1514E+02
     17.074  0.6289E+00  0.1521E+02
     17.175  0.6375E+00  0.1527E+02
     17.276  0.6266E+00  0.1534E+02
     17.377  0.5443E+00  0.1539E+02
     17.477  0.4778E+00  0.1545E+02
     17.578  0.4286E+00  0.1549E+02
     17.679  0.3852E+00  0.1553E+02
     17.780  0.3490E+00  0.1557E+02
     17.881  0.3174E+00  0.1560E+02
     17.982  0.2716E+00  0.1563E+02
     18.082  0.2483E+00  0.1566E+02
     18.183  0.2308E+00  0.1568E+02
     18.284  0.2155E+00  0.1571E+02
     18.385  0.2006E+00  0.1573E+02
     18.486  0.1875E+00  0.1575E+02
     18.587  0.1764E+00  0.1576E+02
     18.687  0.1674E+00  0.1578E+02
     18.788  0.1590E+00  0.1580E+02
     18.889  0.1552E+00  0.1581E+02
     18.990  0.1480E+00  0.1583E+02
     19.091  0.1358E+00  0.1584E+02
     19.191  0.1247E+00  0.1586E+02
     19.292  0.1171E+00  0.1587E+02
     19.393  0.1110E+00  0.1588E+02
     19.494  0.1042E+00  0.1589E+02
     19.595  0.9708E-01  0.1590E+02
     19.696  0.9040E-01  0.1591E+02
     19.796  0.8636E-01  0.1592E+02
     19.897  0.8163E-01  0.1593E+02
     19.998  0.7462E-01  0.1594E+02
     20.099  0.6985E-01  0.1594E+02
     20.200  0.6704E-01  0.1595E+02
     20.301  0.6135E-01  0.1596E+02
     20.401  0.5636E-01  0.1596E+02
     20.502  0.5104E-01  0.1597E+02
     20.603  0.4580E-01  0.1597E+02
     20.704  0.4144E-01  0.1598E+02
     20.805  0.3809E-01  0.1598E+02
     20.905  0.3554E-01  0.1598E+02
     21.006  0.3263E-01  0.1599E+02
     21.107  0.2873E-01  0.1599E+02
     21.208  0.2358E-01  0.1599E+02
     21.309  0.1670E-01  0.1600E+02
     21.410  0.1264E-01  0.1600E+02
     21.510  0.9406E-02  0.1600E+02
     21.611  0.1320E-01  0.1600E+02
     21.712  0.0000E+00  0.1600E+02
     21.813  0.0000E+00  0.1600E+02
     21.914  0.0000E+00  0.1600E+02
     22.015  0.0000E+00  0.1600E+02
     22.115  0.0000E+00  0.1600E+02
     22.216  0.0000E+00  0.1600E+02
     22.317  0.0000E+00  0.1600E+02
     22.418  0.0000E+00  0.1600E+02
     22.519  0.0000E+00  0.1600E+02
     22.619  0.0000E+00  0.1600E+02
     22.720  0.0000E+00  0.1600E+02
     22.821  0.0000E+00  0.1600E+02
     22.922  0.0000E+00  0.1600E+02
     23.023  0.0000E+00  0.1600E+02
     23.124  0.0000E+00  0.1600E+02
     23.224  0.0000E+00  0.1600E+02
     23.325  0.0000E+00  0.1600E+02
     23.426  0.0000E+00  0.1600E+02
     23.527  0.0000E+00  0.1600E+02
     23.628  0.0000E+00  0.1600E+02
     23.62774219     -6.61963243  301      9.03140078      1.00000000
     -6.620  0.0000E+00  0.0000E+00  0.0000E+00  0.0000E+00  0.0000E+00  0.0000E+00  0.0000E+00  0.0000E+00  0.0000E+00
     -6.519  0.0000E+00  0.0000E+00  0.0000E+00  0.0000E+00  0.0000E+00  0.0000E+00  0.0000E+00  0.0000E+00  0.0000E+00
     -6.418  0.0000E+00  0.0000E+00  0.0000E+00  0.0000E+00  0.0000E+00  0.0000E+00  0.0000E+00  0.0000E+00  0.0000E+00
     -6.317  0.0000E+00  0.0000E+00  0.0000E+00  0.0000E+00  0.0000E+00  0.0000E+00  0.0000E+00  0.0000E+00  0.0000E+00
     -6.216  0.0000E+00  0.0000E+00  0.0000E+00  0.0000E+00  0.0000E+00  0.0000E+00  0.0000E+00  0.0000E+00  0.0000E+00
     -6.116  0.0000E+00  0.0000E+00  0.0000E+00  0.0000E+00  0.0000E+00  0.0000E+00  0.0000E+00  0.0000E+00  0.0000E+00
     -6.015  0.0000E+00  0.0000E+00  0.0000E+00  0.0000E+00  0.0000E+00  0.0000E+00  0.0000E+00  0.0000E+00  0.0000E+00
     -5.914  0.0000E+00  0.0000E+00  0.0000E+00  0.0000E+00  0.0000E+00  0.0000E+00  0.0000E+00  0.0000E+00  0.0000E+00
     -5.813  0.0000E+00  0.0000E+00  0.0000E+00  0.0000E+00  0.0000E+00  0.0000E+00  0.0000E+00  0.0000E+00  0.0000E+00
     -5.712  0.0000E+00  0.0000E+00  0.0000E+00  0.0000E+00  0.0000E+00  0.0000E+00  0.0000E+00  0.0000E+00  0.0000E+00
     -5.611  0.0000E+00  0.0000E+00  0.0000E+00  0.0000E+00  0.0000E+00  0.0000E+00  0.0000E+00  0.0000E+00  0.0000E+00
     -5.511  0.0000E+00  0.0000E+00  0.0000E+00  0.0000E+00  0.0000E+00  0.0000E+00  0.0000E+00  0.0000E+00  0.0000E+00
     -5.410  0.0000E+00  0.0000E+00  0.0000E+00  0.0000E+00  0.0000E+00  0.0000E+00  0.0000E+00  0.0000E+00  0.0000E+00
     -5.309  0.0000E+00  0.0000E+00  0.0000E+00  0.0000E+00  0.0000E+00  0.0000E+00  0.0000E+00  0.0000E+00  0.0000E+00
     -5.208  0.0000E+00  0.0000E+00  0.0000E+00  0.0000E+00  0.0000E+00  0.0000E+00  0.0000E+00  0.0000E+00  0.0000E+00
     -5.107  0.0000E+00  0.0000E+00  0.0000E+00  0.0000E+00  0.0000E+00  0.0000E+00  0.0000E+00  0.0000E+00  0.0000E+00
     -5.006  0.0000E+00  0.0000E+00  0.0000E+00  0.0000E+00  0.0000E+00  0.0000E+00  0.0000E+00  0.0000E+00  0.0000E+00
     -4.906  0.0000E+00  0.0000E+00  0.0000E+00  0.0000E+00  0.0000E+00  0.0000E+00  0.0000E+00  0.0000E+00  0.0000E+00
     -4.805  0.0000E+00  0.0000E+00  0.0000E+00  0.0000E+00  0.0000E+00  0.0000E+00  0.0000E+00  0.0000E+00  0.0000E+00
     -4.704  0.0000E+00  0.0000E+00  0.0000E+00  0.0000E+00  0.0000E+00  0.0000E+00  0.0000E+00  0.0000E+00  0.0000E+00
     -4.603  0.2032E-03  0.4018E-06  0.5911E-06  0.5617E-06  0.0000E+00  0.0000E+00  0.0000E+00  0.0000E+00  0.0000E+00
     -4.502  0.9475E-02  0.2211E-04  0.3309E-04  0.3138E-04  0.0000E+00  0.0000E+00  0.0000E+00  0.0000E+00  0.0000E+00
     -4.401  0.1777E-01  0.7491E-04  0.1066E-03  0.1017E-03  0.0000E+00  0.0000E+00  0.0000E+00  0.0000E+00  0.0000E+00
     -4.301  0.2184E-01  0.1307E-03  0.1838E-03  0.1756E-03  0.0000E+00  0.0000E+00  0.0000E+00  0.0000E+00  0.0000E+00
     -4.200  0.2521E-01  0.1957E-03  0.2736E-03  0.2615E-03  0.0000E+00  0.0000E+00  0.0000E+00  0.0000E+00  0.0000E+00
     -4.099  0.3025E-01  0.2761E-03  0.3860E-03  0.3690E-03  0.0000E+00  0.0000E+00  0.0000E+00  0.0000E+00  0.0000E+00
     -3.998  0.3291E-01  0.3669E-03  0.4982E-03  0.4778E-03  0.0000E+00  0.0000E+00  0.0000E+00  0.0000E+00  0.0000E+00
     -3.897  0.3442E-01  0.4580E-03  0.6159E-03  0.5914E-03  0.0000E+00  0.0000E+00  0.0000E+00  0.0000E+00  0.0000E+00
     -3.797  0.3684E-01  0.5609E-03  0.7546E-03  0.7245E-03  0.0000E+00  0.0000E+00  0.0000E+00  0.0000E+00  0.0000E+00
     -3.696  0.3893E-01  0.6629E-03  0.8820E-03  0.8480E-03  0.0000E+00  0.0000E+00  0.0000E+00  0.0000E+00  0.0000E+00
     -3.595  0.4129E-01  0.7718E-03  0.1017E-02  0.9790E-03  0.0000E+00  0.0000E+00  0.0000E+00  0.0000E+00  0.0000E+00
     -3.494  0.4392E-01  0.8964E-03  0.1181E-02  0.1137E-02  0.0000E+00  0.0000E+00  0.0000E+00  0.0000E+00  0.0000E+00
     -3.393  0.4584E-01  0.1026E-02  0.1346E-02  0.1296E-02  0.0000E+00  0.0000E+00  0.0000E+00  0.0000E+00  0.0000E+00
     -3.292  0.4702E-01  0.1154E-02  0.1505E-02  0.1450E-02  0.0000E+00  0.0000E+00  0.0000E+00  0.0000E+00  0.0000E+00
     -3.192  0.4818E-01  0.1281E-02  0.1659E-02  0.1600E-02  0.0000E+00  0.0000E+00  0.0000E+00  0.0000E+00  0.0000E+00
     -3.091  0.4978E-01  0.1419E-02  0.1830E-02  0.1766E-02  0.0000E+00  0.0000E+00  0.0000E+00  0.0000E+00  0.0000E+00
     -2.990  0.5147E-01  0.1563E-02  0.2009E-02  0.1940E-02  0.0000E+00  0.0000E+00  0.0000E+00  0.0000E+00  0.0000E+00
     -2.889  0.5287E-01  0.1708E-02  0.2193E-02  0.2118E-02  0.0000E+00  0.0000E+00  0.0000E+00  0.0000E+00  0.0000E+00
     -2.788  0.5439E-01  0.1854E-02  0.2376E-02  0.2295E-02  0.0000E+00  0.0000E+00  0.0000E+00  0.0000E+00  0.0000E+00
     -2.687  0.5576E-01  0.2003E-02  0.2563E-02  0.2476E-02  0.0000E+00  0.0000E+00  0.0000E+00  0.0000E+00  0.0000E+00
     -2.587  0.5705E-01  0.2162E-02  0.2767E-02  0.2673E-02  0.0000E+00  0.0000E+00  0.0000E+00  0.0000E+00  0.0000E+00
     -2.486  0.5856E-01  0.2328E-02  0.2967E-02  0.2868E-02  0.0000E+00  0.0000E+00  0.0000E+00  0.0000E+00  0.0000E+00
     -2.385  0.5999E-01  0.2496E-02  0.3184E-02  0.3077E-02  0.0000E+00  0.0000E+00  0.0000E+00  0.0000E+00  0.0000E+00
     -2.284  0.6193E-01  0.2671E-02  0.3442E-02  0.3322E-02  0.0000E+00  0.0000E+00  0.0000E+00  0.0000E+00  0.0000E+00
     -2.183  0.6450E-01  0.2864E-02  0.3784E-02  0.3641E-02  0.0000E+00  0.0000E+00  0.0000E+00  0.0000E+00  0.0000E+00
     -2.083  0.6594E-01  0.3049E-02  0.4040E-02  0.3886E-02  0.0000E+00  0.0000E+00  0.0000E+00  0.0000E+00  0.0000E+00
     -1.982  0.6640E-01  0.3227E-02  0.4206E-02  0.4054E-02  0.0000E+00  0.0000E+00  0.0000E+00  0.0000E+00  0.0000E+00
     -1.881  0.6851E-01  0.3459E-02  0.4492E-02  0.4331E-02  0.0000E+00  0.0000E+00  0.0000E+00  0.0000E+00  0.0000E+00
     -1.780  0.6888E-01  0.3635E-02  0.4619E-02  0.4466E-02  0.0000E+00  0.0000E+00  0.0000E+00  0.0000E+00  0.0000E+00
     -1.679  0.6892E-01  0.3792E-02  0.4718E-02  0.4574E-02  0.0000E+00  0.0000E+00  0.0000E+00  0.0000E+00  0.0000E+00
     -1.578  0.6881E-01  0.3944E-02  0.4812E-02  0.4677E-02  0.0000E+00  0.0000E+00  0.0000E+00  0.0000E+00  0.0000E+00
     -1.478  0.7086E-01  0.4179E-02  0.5111E-02  0.4966E-02  0.0000E+00  0.0000E+00  0.0000E+00  0.0000E+00  0.0000E+00
     -1.377  0.6922E-01  0.4306E-02  0.5071E-02  0.4952E-02  0.0000E+00  0.0000E+00  0.0000E+00  0.0000E+00  0.0000E+00
     -1.276  0.6835E-01  0.4476E-02  0.5088E-02  0.4993E-02  0.0000E+00  0.0000E+00  0.0000E+00  0.0000E+00  0.0000E+00
     -1.175  0.6840E-01  0.4691E-02  0.5188E-02  0.5111E-02  0.0000E+00  0.0000E+00  0.0000E+00  0.0000E+00  0.0000E+00
     -1.074  0.6936E-01  0.4935E-02  0.5393E-02  0.5322E-02  0.0000E+00  0.0000E+00  0.0000E+00  0.0000E+00  0.0000E+00
     -0.973  0.7115E-01  0.5167E-02  0.5690E-02  0.5608E-02  0.0000E+00  0.0000E+00  0.0000E+00  0.0000E+00  0.0000E+00
     -0.873  0.7168E-01  0.5311E-02  0.5895E-02  0.5804E-02  0.0000E+00  0.0000E+00  0.0000E+00  0.0000E+00  0.0000E+00
     -0.772  0.7329E-01  0.5504E-02  0.6208E-02  0.6099E-02  0.0000E+00  0.0000E+00  0.0000E+00  0.0000E+00  0.0000E+00
     -0.671  0.7465E-01  0.5723E-02  0.6453E-02  0.6340E-02  0.0000E+00  0.0000E+00  0.0000E+00  0.0000E+00  0.0000E+00
     -0.570  0.7597E-01  0.5927E-02  0.6677E-02  0.6561E-02  0.0000E+00  0.0000E+00  0.0000E+00  0.0000E+00  0.0000E+00
     -0.469  0.7940E-01  0.6462E-02  0.7061E-02  0.6968E-02  0.0000E+00  0.0000E+00  0.0000E+00  0.0000E+00  0.0000E+00
     -0.369  0.7993E-01  0.6570E-02  0.7191E-02  0.7095E-02  0.0000E+00  0.0000E+00  0.0000E+00  0.0000E+00  0.0000E+00
     -0.268  0.7991E-01  0.6705E-02  0.7289E-02  0.7199E-02  0.0000E+00  0.0000E+00  0.0000E+00  0.0000E+00  0.0000E+00
     -0.167  0.8220E-01  0.6985E-02  0.7601E-02  0.7505E-02  0.0000E+00  0.0000E+00  0.0000E+00  0.0000E+00  0.0000E+00
     -0.066  0.8288E-01  0.7134E-02  0.7710E-02  0.7620E-02  0.0000E+00  0.0000E+00  0.0000E+00  0.0000E+00  0.0000E+00
      0.035  0.8421E-01  0.7322E-02  0.7878E-02  0.7792E-02  0.0000E+00  0.0000E+00  0.0000E+00  0.0000E+00  0.0000E+00
      0.136  0.8577E-01  0.7515E-02  0.8061E-02  0.7976E-02  0.0000E+00  0.0000E+00  0.0000E+00  0.0000E+00  0.0000E+00
      0.236  0.8951E-01  0.7803E-02  0.8507E-02  0.8398E-02  0.0000E+00  0.0000E+00  0.0000E+00  0.0000E+00  0.0000E+00
      0.337  0.9251E-01  0.8012E-02  0.8607E-02  0.8514E-02  0.0000E+00  0.0000E+00  0.0000E+00  0.0000E+00  0.0000E+00
      0.438  0.9424E-01  0.8250E-02  0.8752E-02  0.8674E-02  0.0000E+00  0.0000E+00  0.0000E+00  0.0000E+00  0.0000E+00
      0.539  0.9720E-01  0.8486E-02  0.8920E-02  0.8852E-02  0.0000E+00  0.0000E+00  0.0000E+00  0.0000E+00  0.0000E+00
      0.640  0.1012E+00  0.8757E-02  0.9124E-02  0.9067E-02  0.0000E+00  0.0000E+00  0.0000E+00  0.0000E+00  0.0000E+00
      0.741  0.1096E+00  0.9134E-02  0.9525E-02  0.9464E-02  0.0000E+00  0.0000E+00  0.0000E+00  0.0000E+00  0.0000E+00
      0.841  0.1168E+00  0.9597E-02  0.9800E-02  0.9769E-02  0.0000E+00  0.0000E+00  0.0000E+00  0.0000E+00  0.0000E+00
      0.942  0.1187E+00  0.1000E-01  0.9924E-02  0.9936E-02  0.0000E+00  0.0000E+00  0.0000E+00  0.0000E+00  0.0000E+00
      1.043  0.1167E+00  0.1024E-01  0.9952E-02  0.9996E-02  0.0000E+00  0.0000E+00  0.0000E+00  0.0000E+00  0.0000E+00
      1.144  0.1191E+00  0.1054E-01  0.1013E-01  0.1019E-01  0.0000E+00  0.0000E+00  0.0000E+00  0.0000E+00  0.0000E+00
      1.245  0.1226E+00  0.1081E-01  0.1035E-01  0.1042E-01  0.0000E+00  0.0000E+00  0.0000E+00  0.0000E+00  0.0000E+00
      1.346  0.1262E+00  0.1120E-01  0.1052E-01  0.1063E-01  0.0000E+00  0.0000E+00  0.0000E+00  0.0000E+00  0.0000E+00
      1.446  0.1257E+00  0.1134E-01  0.1045E-01  0.1059E-01  0.0000E+00  0.0000E+00  0.0000E+00  0.0000E+00  0.0000E+00
      1.547  0.1161E+00  0.1048E-01  0.1005E-01  0.1012E-01  0.0000E+00  0.0000E+00  0.0000E+00  0.0000E+00  0.0000E+00
      1.648  0.1069E+00  0.9711E-02  0.9619E-02  0.9634E-02  0.0000E+00  0.0000E+00  0.0000E+00  0.0000E+00  0.0000E+00
      1.749  0.9822E-01  0.9029E-02  0.9220E-02  0.9190E-02  0.0000E+00  0.0000E+00  0.0000E+00  0.0000E+00  0.0000E+00
      1.850  0.8989E-01  0.8493E-02  0.8847E-02  0.8792E-02  0.0000E+00  0.0000E+00  0.0000E+00  0.0000E+00  0.0000E+00
      1.950  0.8288E-01  0.8110E-02  0.8592E-02  0.8517E-02  0.0000E+00  0.0000E+00  0.0000E+00  0.0000E+00  0.0000E+00
      2.051  0.7630E-01  0.7726E-02  0.8319E-02  0.8227E-02  0.0000E+00  0.0000E+00  0.0000E+00  0.0000E+00  0.0000E+00
      2.152  0.6668E-01  0.7180E-02  0.7661E-02  0.7587E-02  0.0000E+00  0.0000E+00  0.0000E+00  0.0000E+00  0.0000E+00
      2.253  0.6619E-01  0.7340E-02  0.7978E-02  0.7879E-02  0.0000E+00  0.0000E+00  0.0000E+00  0.0000E+00  0.0000E+00
      2.354  0.6451E-01  0.7475E-02  0.8035E-02  0.7948E-02  0.0000E+00  0.0000E+00  0.0000E+00  0.0000E+00  0.0000E+00
      2.455  0.5850E-01  0.7988E-02  0.9237E-02  0.9043E-02  0.0000E+00  0.0000E+00  0.0000E+00  0.0000E+00  0.0000E+00
      2.555  0.6190E-01  0.9681E-02  0.1034E-01  0.1024E-01  0.0000E+00  0.0000E+00  0.0000E+00  0.0000E+00  0.0000E+00
      2.656  0.6886E-01  0.1302E-01  0.1293E-01  0.1295E-01  0.0000E+00  0.0000E+00  0.0000E+00  0.0000E+00  0.0000E+00
      2.757  0.7617E-01  0.1619E-01  0.1553E-01  0.1564E-01  0.0000E+00  0.0000E+00  0.0000E+00  0.0000E+00  0.0000E+00
      2.858  0.8395E-01  0.1897E-01  0.1807E-01  0.1821E-01  0.0000E+00  0.0000E+00  0.0000E+00  0.0000E+00  0.0000E+00
      2.959  0.9300E-01  0.2127E-01  0.2098E-01  0.2102E-01  0.0000E+00  0.0000E+00  0.0000E+00  0.0000E+00  0.0000E+00
      3.060  0.8645E-01  0.2100E-01  0.2111E-01  0.2109E-01  0.0000E+00  0.0000E+00  0.0000E+00  0.0000E+00  0.0000E+00
      3.160  0.7662E-01  0.1924E-01  0.2009E-01  0.1996E-01  0.0000E+00  0.0000E+00  0.0000E+00  0.0000E+00  0.0000E+00
      3.261  0.6960E-01  0.1775E-01  0.1971E-01  0.1941E-01  0.0000E+00  0.0000E+00  0.0000E+00  0.0000E+00  0.0000E+00
      3.362  0.6345E-01  0.1639E-01  0.1944E-01  0.1897E-01  0.0000E+00  0.0000E+00  0.0000E+00  0.0000E+00  0.0000E+00
      3.463  0.5916E-01  0.1551E-01  0.1944E-01  0.1883E-01  0.0000E+00  0.0000E+00  0.0000E+00  0.0000E+00  0.0000E+00
      3.564  0.5539E-01  0.1467E-01  0.1924E-01  0.1853E-01  0.0000E+00  0.0000E+00  0.0000E+00  0.0000E+00  0.0000E+00
      3.664  0.5069E-01  0.1387E-01  0.1910E-01  0.1829E-01  0.0000E+00  0.0000E+00  0.0000E+00  0.0000E+00  0.0000E+00
      3.765  0.4875E-01  0.1555E-01  0.2030E-01  0.1956E-01  0.0000E+00  0.0000E+00  0.0000E+00  0.0000E+00  0.0000E+00
      3.866  0.4981E-01  0.1958E-01  0.2310E-01  0.2255E-01  0.0000E+00  0.0000E+00  0.0000E+00  0.0000E+00  0.0000E+00
      3.967  0.5123E-01  0.2387E-01  0.2544E-01  0.2520E-01  0.0000E+00  0.0000E+00  0.0000E+00  0.0000E+00  0.0000E+00
      4.068  0.5333E-01  0.2849E-01  0.2804E-01  0.2811E-01  0.0000E+00  0.0000E+00  0.0000E+00  0.0000E+00  0.0000E+00
      4.169  0.5354E-01  0.3120E-01  0.2956E-01  0.2982E-01  0.0000E+00  0.0000E+00  0.0000E+00  0.0000E+00  0.0000E+00
      4.269  0.5291E-01  0.3131E-01  0.3020E-01  0.3038E-01  0.0000E+00  0.0000E+00  0.0000E+00  0.0000E+00  0.0000E+00
      4.370  0.5177E-01  0.3020E-01  0.2990E-01  0.2994E-01  0.0000E+00  0.0000E+00  0.0000E+00  0.0000E+00  0.0000E+00
      4.471  0.5108E-01  0.2998E-01  0.2991E-01  0.2992E-01  0.0000E+00  0.0000E+00  0.0000E+00  0.0000E+00  0.0000E+00
      4.572  0.5075E-01  0.3084E-01  0.3045E-01  0.3051E-01  0.0000E+00  0.0000E+00  0.0000E+00  0.0000E+00  0.0000E+00
      4.673  0.4980E-01  0.3065E-01  0.3063E-01  0.3063E-01  0.0000E+00  0.0000E+00  0.0000E+00  0.0000E+00  0.0000E+00
      4.774  0.4917E-01  0.3077E-01  0.3101E-01  0.3097E-01  0.0000E+00  0.0000E+00  0.0000E+00  0.0000E+00  0.0000E+00
      4.874  0.4870E-01  0.3108E-01  0.3159E-01  0.3151E-01  0.0000E+00  0.0000E+00  0.0000E+00  0.0000E+00  0.0000E+00
      4.975  0.4815E-01  0.3133E-01  0.3210E-01  0.3198E-01  0.0000E+00  0.0000E+00  0.0000E+00  0.0000E+00  0.0000E+00
      5.076  0.4750E-01  0.3153E-01  0.3250E-01  0.3235E-01  0.0000E+00  0.0000E+00  0.0000E+00  0.0000E+00  0.0000E+00
      5.177  0.4722E-01  0.3210E-01  0.3328E-01  0.3310E-01  0.0000E+00  0.0000E+00  0.0000E+00  0.0000E+00  0.0000E+00
      5.278  0.4702E-01  0.3351E-01  0.3439E-01  0.3426E-01  0.0000E+00  0.0000E+00  0.0000E+00  0.0000E+00  0.0000E+00
      5.378  0.4660E-01  0.3444E-01  0.3521E-01  0.3509E-01  0.0000E+00  0.0000E+00  0.0000E+00  0.0000E+00  0.0000E+00
      5.479  0.4642E-01  0.3546E-01  0.3616E-01  0.3605E-01  0.0000E+00  0.0000E+00  0.0000E+00  0.0000E+00  0.0000E+00
      5.580  0.4608E-01  0.3596E-01  0.3707E-01  0.3690E-01  0.0000E+00  0.0000E+00  0.0000E+00  0.0000E+00  0.0000E+00
      5.681  0.4382E-01  0.3595E-01  0.3772E-01  0.3744E-01  0.0000E+00  0.0000E+00  0.0000E+00  0.0000E+00  0.0000E+00
      5.782  0.4285E-01  0.3663E-01  0.3876E-01  0.3843E-01  0.0000E+00  0.0000E+00  0.0000E+00  0.0000E+00  0.0000E+00
      5.883  0.4179E-01  0.3751E-01  0.3996E-01  0.3958E-01  0.0000E+00  0.0000E+00  0.0000E+00  0.0000E+00  0.0000E+00
      5.983  0.4041E-01  0.3830E-01  0.4102E-01  0.4060E-01  0.0000E+00  0.0000E+00  0.0000E+00  0.0000E+00  0.0000E+00
      6.084  0.3902E-01  0.3896E-01  0.4215E-01  0.4165E-01  0.0000E+00  0.0000E+00  0.0000E+00  0.0000E+00  0.0000E+00
      6.185  0.3797E-01  0.3995E-01  0.4370E-01  0.4312E-01  0.0000E+00  0.0000E+00  0.0000E+00  0.0000E+00  0.0000E+00
      6.286  0.3699E-01  0.4109E-01  0.4562E-01  0.4492E-01  0.0000E+00  0.0000E+00  0.0000E+00  0.0000E+00  0.0000E+00
      6.387  0.3643E-01  0.4289E-01  0.4844E-01  0.4758E-01  0.0000E+00  0.0000E+00  0.0000E+00  0.0000E+00  0.0000E+00
      6.488  0.3585E-01  0.4520E-01  0.5427E-01  0.5286E-01  0.0000E+00  0.0000E+00  0.0000E+00  0.0000E+00  0.0000E+00
      6.588  0.3399E-01  0.4750E-01  0.5807E-01  0.5643E-01  0.0000E+00  0.0000E+00  0.0000E+00  0.0000E+00  0.0000E+00
      6.689  0.3220E-01  0.4835E-01  0.5756E-01  0.5613E-01  0.0000E+00  0.0000E+00  0.0000E+00  0.0000E+00  0.0000E+00
      6.790  0.3115E-01  0.5056E-01  0.5880E-01  0.5752E-01  0.0000E+00  0.0000E+00  0.0000E+00  0.0000E+00  0.0000E+00
      6.891  0.3120E-01  0.5608E-01  0.6323E-01  0.6212E-01  0.0000E+00  0.0000E+00  0.0000E+00  0.0000E+00  0.0000E+00
      6.992  0.3068E-01  0.5964E-01  0.6666E-01  0.6557E-01  0.0000E+00  0.0000E+00  0.0000E+00  0.0000E+00  0.0000E+00
      7.093  0.2978E-01  0.6124E-01  0.6865E-01  0.6750E-01  0.0000E+00  0.0000E+00  0.0000E+00  0.0000E+00  0.0000E+00
      7.193  0.2879E-01  0.6147E-01  0.6941E-01  0.6818E-01  0.0000E+00  0.0000E+00  0.0000E+00  0.0000E+00  0.0000E+00
      7.294  0.2657E-01  0.5476E-01  0.6341E-01  0.6207E-01  0.0000E+00  0.0000E+00  0.0000E+00  0.0000E+00  0.0000E+00
      7.395  0.2431E-01  0.4975E-01  0.5849E-01  0.5713E-01  0.0000E+00  0.0000E+00  0.0000E+00  0.0000E+00  0.0000E+00
      7.496  0.2274E-01  0.4800E-01  0.5781E-01  0.5629E-01  0.0000E+00  0.0000E+00  0.0000E+00  0.0000E+00  0.0000E+00
      7.597  0.2121E-01  0.4569E-01  0.5435E-01  0.5300E-01  0.0000E+00  0.0000E+00  0.0000E+00  0.0000E+00  0.0000E+00
      7.697  0.1990E-01  0.4094E-01  0.4754E-01  0.4652E-01  0.0000E+00  0.0000E+00  0.0000E+00  0.0000E+00  0.0000E+00
      7.798  0.1869E-01  0.3740E-01  0.4170E-01  0.4103E-01  0.0000E+00  0.0000E+00  0.0000E+00  0.0000E+00  0.0000E+00
      7.899  0.1862E-01  0.3488E-01  0.3815E-01  0.3765E-01  0.0000E+00  0.0000E+00  0.0000E+00  0.0000E+00  0.0000E+00
      8.000  0.1954E-01  0.3233E-01  0.3446E-01  0.3413E-01  0.0000E+00  0.0000E+00  0.0000E+00  0.0000E+00  0.0000E+00
      8.101  0.2157E-01  0.3244E-01  0.3433E-01  0.3403E-01  0.0000E+00  0.0000E+00  0.0000E+00  0.0000E+00  0.0000E+00
      8.202  0.2408E-01  0.3356E-01  0.3523E-01  0.3497E-01  0.0000E+00  0.0000E+00  0.0000E+00  0.0000E+00  0.0000E+00
      8.302  0.2727E-01  0.3565E-01  0.3678E-01  0.3660E-01  0.0000E+00  0.0000E+00  0.0000E+00  0.0000E+00  0.0000E+00
      8.403  0.2985E-01  0.3705E-01  0.3778E-01  0.3766E-01  0.0000E+00  0.0000E+00  0.0000E+00  0.0000E+00  0.0000E+00
      8.504  0.3115E-01  0.3804E-01  0.3808E-01  0.3808E-01  0.0000E+00  0.0000E+00  0.0000E+00  0.0000E+00  0.0000E+00
      8.605  0.3170E-01  0.3836E-01  0.3739E-01  0.3754E-01  0.0000E+00  0.0000E+00  0.0000E+00  0.0000E+00  0.0000E+00
      8.706  0.3209E-01  0.3884E-01  0.3669E-01  0.3703E-01  0.0000E+00  0.0000E+00  0.0000E+00  0.0000E+00  0.0000E+00
      8.807  0.3248E-01  0.3963E-01  0.3605E-01  0.3661E-01  0.0000E+00  0.0000E+00  0.0000E+00  0.0000E+00  0.0000E+00
      8.907  0.3298E-01  0.3979E-01  0.3508E-01  0.3581E-01  0.0000E+00  0.0000E+00  0.0000E+00  0.0000E+00  0.0000E+00
      9.008  0.3239E-01  0.3950E-01  0.3412E-01  0.3496E-01  0.0000E+00  0.0000E+00  0.0000E+00  0.0000E+00  0.0000E+00
      9.109  0.3169E-01  0.3858E-01  0.3234E-01  0.3331E-01  0.0000E+00  0.0000E+00  0.0000E+00  0.0000E+00  0.0000E+00