    2    2    1    1
  0.1537565E+02  0.3645706E-09  0.3645706E-09  0.3645706E-09  0.5000000E-15
   1.0000000000000000E-004
  CAR 
 si-sym141                               
      8    413      8

  0.1262379E-14  0.1262379E-14  0.1262379E-14  0.6574622E-03
      1         -4.619693   1.000000
      2          6.620022   1.000000
      3          6.620044   1.000000
      4          7.106875   1.028050
      5         10.693746   0.000000
      6         16.501131   0.000000
      7         17.912152   0.000000
      8         17.912158   0.000000

  0.7692308E-01  0.1255940E-14  0.1270450E-14  0.2629849E-02
      1         -4.463552   1.000000
      2          6.069829   1.000000
      3          6.550660   1.000000
      4          7.922936   1.082811
      5         11.047648   0.000000
      6         15.526807   0.000000
      7         16.258006   0.000000
      8         17.552030   0.000000

  0.1538462E+00  0.1235123E-14  0.1288356E-14  0.2629849E-02
      1         -3.996090   1.000000
      2          5.605855   1.000000
      3          6.437812   1.000000
      4          9.137049   0.332228
      5         11.990508   0.000000
      6         13.426904   0.000000
      7         14.062091   0.000000
      8         16.335811   0.000000

  0.2307692E+00  0.1249001E-14  0.1264836E-14  0.2629849E-02
      1         -3.220399   1.000000
      2          5.412016   1.000000
      3          6.425566   1.000000
      4          9.772358   0.039859
      5         11.593268   0.000000
      6         12.224478   0.000000
      7         13.115664   0.000000
      8         14.970300   0.000000

  0.3076923E+00  0.1249001E-14  0.1275359E-14  0.2629849E-02
      1         -2.142397   1.000000
      2          5.455692   1.000000
      3          6.584252   1.000000
      4          7.723865   1.067758
      5         10.454748  -0.075772
      6         12.482403   0.000000
      7         12.824738   0.000000
      8         14.422118   0.000000

  0.3846154E+00  0.1221245E-14  0.1314899E-14  0.2629849E-02
      1         -0.774379   1.000000
      2          4.920742   1.000000
      3          6.256910   1.000000
      4          6.901456   1.000000
      5          8.990779   0.491793
      6         11.179402   0.000000
      7         13.752678   0.000000
      8         14.289574   0.000000

  0.4615385E+00  0.1165734E-14  0.1286788E-14  0.2629849E-02
      1          0.828577   1.000000
      2          2.956981   1.000000
      3          6.721299   1.000000
      4          7.228548   1.000000
      5          7.806530   1.127618
      6         10.318006   0.000000
      7         13.533724   0.000000
      8         14.487662   0.000000

  0.7692308E-01  0.7692308E-01  0.1289618E-14  0.1314924E-02
      1         -4.069689   1.000000
      2          5.854390   1.000000
      3          7.063591   1.000000
      4          8.401903   0.947789
      5         11.627986   0.000000
      6         13.859243   0.000000
      7         13.996556   0.000000
      8         16.380584   0.000000

  0.1538462E+00  0.7692308E-01  0.1306470E-14  0.2629849E-02
      1         -3.366854   1.000000
      2          5.656673   1.000000
      3          7.313705   1.000000
      4          9.376459   0.219628
      5         11.489346   0.000000
      6         11.881538   0.000000
      7         12.856750   0.000000
      8         14.819346   0.000000

  0.2307692E+00  0.7692308E-01  0.1257304E-14  0.2629849E-02
      1         -2.360255   1.000000
      2          5.680024   1.000000
      3          7.403560   1.000000
      4          8.346376   1.016140
      5         10.086367  -0.033217
      6         11.614720   0.000000
      7         12.692889   0.000000
      8         14.241488   0.000000

  0.3076923E+00  0.7692308E-01  0.1267827E-14  0.2629849E-02
      1         -1.060203   1.000000
      2          5.450845   1.000000
      3          6.371892   1.000000
      4          7.560267   1.000000
      5          8.762893   0.591843
      6         11.332485   0.000000
      7         12.842745   0.000000
      8         14.235007   0.000000

  0.3846154E+00  0.7692308E-01  0.1283830E-14  0.2629849E-02
      1          0.499512   1.000000
      2          3.483825   1.000000
      3          6.634550   1.000000
      4          6.866011   1.000000
      5          8.358655   1.002376
      6         10.571364   0.000000
      7         12.811996   0.000000
      8         15.220823   0.000000

  0.4615385E+00  0.7692308E-01  0.1345645E-14  0.2629849E-02
      1          1.255561   1.000000
      2          2.600260   1.000000
      3          5.858214   1.000000
      4          7.195839   1.000000
      5          8.291810   1.032086
      6         10.784129   0.000000
      7         12.764577   0.000000
      8         15.313132   0.000000

 -0.4615385E+00  0.7692308E-01  0.1240217E-14  0.2629849E-02
      1         -0.347538   1.000000
      2          4.352917   1.000000
      3          5.368552   1.000000
      4          6.994629   1.000000
      5          9.073142   0.351902
      6         11.698145   0.000000
      7         12.998232   0.000000
      8         15.077248   0.000000

 -0.3846154E+00  0.7692308E-01  0.1231423E-14  0.2629849E-02
      1         -1.780126   1.000000
      2          4.467093   1.000000
      3          6.493440   1.000000
      4          7.277551   1.077170
      5         10.374937  -0.026642
      6         12.862756   0.000000
      7         13.430534   0.000000
      8         13.950298   0.000000

 -0.3076923E+00  0.7692308E-01  0.1270963E-14  0.2629849E-02
      1         -2.927928   1.000000
      2          4.316696   1.000000
      3          6.378402   1.000000
      4          9.564055   0.202193
      5         11.896911   0.000000
      6         12.105091   0.000000
      7         13.881290   0.000000
      8         14.604728   0.000000

 -0.2307692E+00  0.7692308E-01  0.1262169E-14  0.2629849E-02
      1         -3.775513   1.000000
      2          4.422958   1.000000
      3          6.401655   1.000000
      4          9.909534  -0.040141
      5         12.661796   0.000000
      6         13.269109   0.000000
      7         13.642326   0.000000
      8         15.577686   0.000000

 -0.1538462E+00  0.7692308E-01  0.1254636E-14  0.2629849E-02
      1         -4.316032   1.000000
      2          4.802520   1.000000
      3          6.576005   1.000000
      4          8.774972   0.569255
      5         11.931028   0.000000
      6         14.609582   0.000000
      7         15.938107   0.000000
      8         17.076067   0.000000

 -0.7692308E-01  0.7692308E-01  0.1257793E-14  0.1314924E-02
      1         -4.545851   1.000000
      2          5.429959   1.000000
      3          6.686856   1.000000
      4          7.996167   1.045018
      5         11.181765   0.000000
      6         15.678877   0.000000
      7         17.447466   0.000000
      8         17.953354   0.000000

  0.1538462E+00  0.1538462E+00  0.1283798E-14  0.1314924E-02
      1         -2.432960   1.000000
      2          5.674158   1.000000
      3          7.929316   1.000000
      4          8.830439   0.904933
      5          9.792620  -0.007584
      6         10.862090   0.000000
      7         13.181678   0.000000
      8         13.542239   0.000000

  0.2307692E+00  0.1538462E+00  0.1304021E-14  0.2629849E-02
      1         -1.203475   1.000000
      2          5.769595   1.000000
      3          6.612716   1.000000
      4          7.275633   1.000000
      5          9.387041   0.058340
      6         11.899889   0.000000
      7         11.993333   0.000000
      8         13.074070   0.000000

  0.3076923E+00  0.1538462E+00  0.1286788E-14  0.2629849E-02
      1          0.296915   1.000000
      2          4.147680   1.000000
      3          5.819378   1.000000
      4          6.665843   1.000000
      5          9.263559   0.301727
      6         11.235238   0.000000
      7         12.099724   0.000000
      8         14.540515   0.000000

  0.3846154E+00  0.1538462E+00  0.1392717E-14  0.2629849E-02
      1          1.651049   1.000000
      2          2.539461   1.000000
      3          4.807744   1.000000
      4          7.202464   1.000000
      5          8.804306   0.682126
      6         11.271043   0.000000
      7         12.346165   0.000000
      8         16.136982   0.000000

  0.4615385E+00  0.1538462E+00  0.1293998E-14  0.2629849E-02
      1          0.217500   1.000000
      2          3.606674   1.000000
      3          4.623415   1.000000
      4          7.357767   1.000000
      5          8.993773   0.426508
      6         11.591974   0.000000
      7         13.147980   0.000000
      8         15.965860   0.000000

 -0.4615385E+00  0.1538462E+00  0.1231423E-14  0.2629849E-02
      1         -1.274755   1.000000
      2          3.263813   1.000000
      3          6.521490   1.000000
      4          7.224601   1.055174
      5         10.037311  -0.047755
      6         12.182587   0.000000
      7         13.961959   0.000000
      8         14.848233   0.000000

 -0.3846154E+00  0.1538462E+00  0.1250385E-14  0.2629849E-02
      1         -2.490338   1.000000
      2          3.021188   1.000000
      3          6.711186   1.000000
      4          9.225601   0.390967
      5         11.315796  -0.000067
      6         12.600163   0.000000
      7         13.184758   0.000000
      8         15.709435   0.000000

 -0.3076923E+00  0.1538462E+00  0.1262169E-14  0.2629849E-02
      1         -3.408563   1.000000
      2          3.054462   1.000000
      3          6.701910   1.000000
      4         10.419452  -0.013509
      5         12.077036   0.000000
      6         13.020384   0.000000
      7         14.353743   0.000000
      8         15.401544   0.000000

 -0.2307692E+00  0.1538462E+00  0.1265143E-14  0.2629849E-02
      1         -4.021358   1.000000
      2          3.373142   1.000000
      3          6.835327   1.000000
      4          9.377637   0.011838
      5         13.284577   0.000000
      6         13.625541   0.000000
      7         15.438636   0.000000
      8         16.401773   0.000000

 -0.1538462E+00  0.1538462E+00  0.1256223E-14  0.1314924E-02
      1         -4.324501   1.000000
      2          3.968446   1.000000
      3          6.887246   1.000000
      4          8.691523   0.493233
      5         12.502727   0.000000
      6         14.400055   0.000000
      7         16.462358   0.000000
      8         17.742078   0.000000

  0.2307692E+00  0.2307692E+00  0.1272952E-14  0.1314924E-02
      1          0.228755   1.000000
      2          4.842013   1.000000
      3          5.037248   1.000000
      4          6.614560   1.000000
      5          9.751314   0.005182
      6         11.122163   0.000000
      7         12.719658   0.000000
      8         13.347957   0.000000

  0.3076923E+00  0.2307692E+00  0.1307011E-14  0.2629849E-02
      1          1.775203   1.000000
      2          2.989144   1.000000
      3          3.858972   1.000000
      4          7.180056   1.000000
      5          9.339538   0.216327
      6         10.669159   0.000000
      7         13.442917   0.000000
      8         15.202813   0.000000

  0.3846154E+00  0.2307692E+00  0.1365868E-14  0.2629849E-02
      1          0.915252   1.000000
      2          2.666322   1.000000
      3          4.287552   1.000000
      4          7.690448   1.000000
      5          9.022755   0.428515
      6         10.780245   0.000000
      7         14.387402   0.000000
      8         16.388256   0.000000

  0.4615385E+00  0.2307692E+00  0.1305782E-14  0.2629849E-02
      1         -0.628397   1.000000
      2          2.115308   1.000000
      3          6.364231   1.000000
      4          7.629681   1.026178
      5          9.605847   0.029913
      6         11.390504   0.000000
      7         14.765634   0.000000
      8         15.868187   0.000000

 -0.4615385E+00  0.2307692E+00  0.1223891E-14  0.2629849E-02
      1         -1.909113   1.000000
      2          1.790426   1.000000
      3          7.193533   1.000000
      4          8.936141   0.593581
      5         10.570565  -0.024654
      6         12.549086   0.000000
      7         13.188541   0.000000
      8         16.179762   0.000000

 -0.3846154E+00  0.2307692E+00  0.1278157E-14  0.2629849E-02
      1         -2.896387   1.000000
      2          1.752408   1.000000
      3          7.157006   1.000000
      4         10.707093  -0.064532
      5         11.362838  -0.000007
      6         12.614907   0.000000
      7         14.140218   0.000000
      8         15.756824   0.000000

 -0.3076923E+00  0.2307692E+00  0.1280282E-14  0.2629849E-02
      1         -3.580431   1.000000
      2          2.007671   1.000000
      3          7.234788   1.000000
      4          9.921770   0.000000
      5         12.259308   0.000000
      6         14.636757   0.000000
      7         15.253217   0.000000
      8         15.758409   0.000000

 -0.2307692E+00  0.2307692E+00  0.1270562E-14  0.1314924E-02
      1         -3.956230   1.000000
      2          2.552578   1.000000
      3          7.220830   1.000000
      4          9.235217   0.013433
      5         13.128222   0.000000
      6         14.269409   0.000000
      7         15.332048   0.000000
      8         17.497734   0.000000

  0.3076923E+00  0.3076923E+00  0.1302436E-14  0.1314924E-02
      1          1.674550   1.000000
      2          1.806935   1.000000
      3          4.192340   1.000000
      4          7.818855   1.000000
      5          9.132268   0.342883
      6         10.371255   0.000000
      7         15.508611   0.000000
      8         15.875671   0.000000

  0.3846154E+00  0.3076923E+00  0.1352855E-14  0.2629849E-02
      1          0.155689   1.000000
      2          1.073734   1.000000
      3          6.254853   1.000355
      4          8.143956   1.006359
      5          9.119294   0.324641
      6         10.966528   0.000000
      7         15.408818   0.000000
      8         16.504021   0.000000

  0.4615385E+00  0.3076923E+00  0.1292769E-14  0.2629849E-02
      1         -1.186357   1.000000
      2          0.669736   1.000000
      3          7.760551   1.011063
      4          8.719114   0.807060
      5          9.823966   0.015739
      6         12.210676   0.000000
      7         13.836268   0.000000
      8         15.559158   0.000000

 -0.4615385E+00  0.3076923E+00  0.1240743E-14  0.2629849E-02
      1         -2.240587   1.000000
      2          0.559498   1.000000
      3          7.744943   1.000088
      4         10.138985  -0.010409
      5         11.270213  -0.004201
      6         12.611254   0.000000
      7         13.862130   0.000000
      8         14.843808   0.000000

 -0.3846154E+00  0.3076923E+00  0.1268308E-14  0.2629849E-02
      1         -2.994531   1.000000
      2          0.747701   1.000000
      3          7.767559   1.000000
      4         10.521708  -0.021378
      5         11.154576   0.000000
      6         13.838979   0.000000
      7         15.238039   0.000000
      8         15.746826   0.000000

 -0.3076923E+00  0.3076923E+00  0.1279808E-14  0.1314924E-02
      1         -3.442145   1.000000
      2          1.232795   1.000000
      3          7.686942   1.000000
      4          9.808036   0.000000
      5         11.933998   0.000000
      6         14.198461   0.000000
      7         16.153773   0.000000
      8         17.285643   0.000000

  0.3846154E+00  0.3846154E+00  0.1373077E-14  0.1314924E-02
      1         -0.332102   1.000000
      2         -0.318250   1.000000
      3          8.170738   1.019964
      4          8.549767   0.954858
      5          9.439738   0.122040
      6         12.104828   0.000000
      7         14.338007   0.000000
      8         15.011371   0.000000

  0.4615385E+00  0.3846154E+00  0.1321430E-14  0.2629849E-02
      1         -1.443544   1.000000
      2         -0.508526   1.000000
      3          8.454244   1.028657
      4          9.267893   0.348095
      5         11.321373  -0.016758
      6         12.960658   0.000000
      7         13.730623   0.000000
      8         14.059005   0.000000

 -0.4615385E+00  0.3846154E+00  0.1264740E-14  0.2629849E-02
      1         -2.265535   1.000000
      2         -0.389863   1.000000
      3          8.430283   1.004663
      4         10.126101  -0.020335
      5         11.229601   0.000000
      6         12.916495   0.000000
      7         15.002585   0.000000
      8         15.624048   0.000000

 -0.3846154E+00  0.3846154E+00  0.1286662E-14  0.1314924E-02
      1         -2.783818   1.000000
      2          0.030314   1.000000
      3          8.284488   1.000000
      4         10.473002  -0.039892
      5         10.842152   0.000000
      6         13.122106   0.000000
      7         17.144548   0.000000
      8         17.319880   0.000000

  0.4615385E+00  0.4615385E+00  0.1252906E-14  0.1314924E-02
      1         -1.396639   1.000000
      2         -1.395548   1.000000
      3          9.215079   0.831522
      4          9.222823   0.304268
      5         11.959531   0.000000
      6         12.100286   0.000000
      7         14.926360   0.000000
      8         15.569709   0.000000

 -0.4615385E+00  0.4615385E+00  0.1272830E-14  0.1314924E-02
      1         -1.983397   1.000000
      2         -1.043912   1.000000
      3          9.011627   0.926252
      4          9.865646   0.002972
      5         11.247610   0.000000
      6         12.133118   0.000000
      7         17.097329   0.000000
      8         17.154457   0.000000

  0.1262379E-14  0.1262379E-14  0.1111111E+00  0.1314924E-02
      1         -4.465645   1.000000
      2          4.780554   1.000000
      3          6.759466   1.000000
      4          8.341907   1.015017
      5         11.687571   0.000000
      6         15.119232   0.000000
      7         17.043328   0.000000
      8         17.867776   0.000000

  0.7692308E-01  0.1255940E-14  0.1111111E+00  0.2629849E-02
      1         -4.203196   1.000000
      2          4.164432   1.000000
      3          6.672952   1.000000
      4          9.063373   0.374222
      5         12.550354   0.000000
      6         14.113180   0.000000
      7         15.730647   0.000000
      8         16.787721   0.000000

  0.1538462E+00  0.1235123E-14  0.1111111E+00  0.2629849E-02
      1         -3.630444   1.000000
      2          3.812147   1.000000
      3          6.512863   1.000000
      4         10.158212  -0.036455
      5         12.446997   0.000000
      6         13.359777   0.000000
      7         13.835416   0.000000
      8         15.312884   0.000000

  0.2307692E+00  0.1249001E-14  0.1111111E+00  0.2629849E-02
      1         -2.751293   1.000000
      2          3.739078   1.000000
      3          6.502549   1.000000
      4          9.412995   0.244935
      5         11.669701   0.000000
      6         12.313542   0.000000
      7         13.629983   0.000000
      8         15.028849   0.000000

  0.3076923E+00  0.1249001E-14  0.1111111E+00  0.2629849E-02
      1         -1.573086   1.000000
      2          3.932591   1.000000
      3          6.536757   1.000000
      4          7.182810   1.063403
      5         10.240262  -0.038502
      6         12.682638   0.000000
      7         13.535010   0.000000
      8         14.322878   0.000000

  0.3846154E+00  0.1221245E-14  0.1111111E+00  0.2629849E-02
      1         -0.113241   1.000000
      2          4.056587   1.000000
      3          4.980832   1.000000
      4          7.147577   1.000000
      5          9.037633   0.309394
      6         11.882967   0.000000
      7         12.780427   0.000000
      8         15.500923   0.000000

  0.4615385E+00  0.1165734E-14  0.1111111E+00  0.2629849E-02
      1          1.451579   1.000000
      2          2.520931   1.000000
      3          5.386435   1.000000
      4          7.205937   1.000000
      5          8.512746   0.955310
      6         11.123961   0.000000
      7         12.393628   0.000000
      8         15.786277   0.000000

 -0.4615385E+00  0.1221245E-14  0.1111111E+00  0.2629849E-02
      1          0.393181   1.000000
      2          3.763277   1.000000
      3          6.308557   1.000000
      4          6.741946   1.000000
      5          8.780488   0.792813
      6         10.868658   0.000000
      7         12.412060   0.000000
      8         15.224569   0.000000

 -0.3846154E+00  0.1332268E-14  0.1111111E+00  0.2629849E-02
      1         -1.141535   1.000000
      2          5.638178   1.000000
      3          6.424123   1.000000
      4          7.552211   1.000000
      5          8.965511   0.471603
      6         11.580668   0.000000
      7         12.385481   0.000000
      8         13.733752   0.000000

 -0.3076923E+00  0.1332268E-14  0.1111111E+00  0.2629849E-02
      1         -2.410509   1.000000
      2          5.678431   1.000000
      3          7.748630   1.000000
      4          8.638236   0.928774
      5          9.896994  -0.043246
      6         11.144310   0.000000
      7         12.926924   0.000000
      8         13.864080   0.000000

 -0.2307692E+00  0.1304512E-14  0.1111111E+00  0.2629849E-02
      1         -3.384943   1.000000
      2          5.661797   1.000000
      3          7.560910   1.000000
      4          9.192675   0.216747
      5         11.607410   0.000000
      6         11.702338   0.000000
      7         12.846054   0.000000
      8         14.874845   0.000000

 -0.1538462E+00  0.1290634E-14  0.1111111E+00  0.2629849E-02
      1         -4.055144   1.000000
      2          5.827516   1.000000
      3          6.846895   1.000000
      4          8.619914   0.796601
      5         11.698625   0.000000
      6         13.715722   0.000000
      7         14.067271   0.000000
      8         16.377822   0.000000

 -0.7692308E-01  0.1276756E-14  0.1111111E+00  0.2629849E-02
      1         -4.416187   1.000000
      2          5.573551   1.000000
      3          6.507659   1.000000
      4          8.332731   1.007916
      5         11.336754   0.000000
      6         15.176527   0.000000
      7         16.148574   0.000000
      8         17.390258   0.000000

  0.7692308E-01  0.7692308E-01  0.1111111E+00  0.1314924E-02
      1         -3.703753   1.000000
      2          3.775043   1.000000
      3          7.383601   1.000000
      4          9.331427   0.081175
      5         12.641489   0.000000
      6         13.449475   0.000000
      7         13.896535   0.000000
      8         15.742363   0.000000

  0.1538462E+00  0.7692308E-01  0.1111111E+00  0.2629849E-02
      1         -2.896950   1.000000
      2          3.647201   1.000000
      3          7.677521   1.000000
      4          9.766633   0.029218
      5         11.185721   0.000000
      6         11.321682   0.000000
      7         14.513850   0.000000
      8         15.248503   0.000000

  0.2307692E+00  0.7692308E-01  0.1111111E+00  0.2629849E-02
      1         -1.789222   1.000000
      2          3.789290   1.000000
      3          7.345743   1.000000
      4          8.089246   1.028400
      5          9.774205  -0.001090
      6         12.369719   0.000000
      7         13.665873   0.000000
      8         14.579393   0.000000

  0.3076923E+00  0.7692308E-01  0.1111111E+00  0.2629849E-02
      1         -0.394384   1.000000
      2          4.103992   1.000000
      3          5.298516   1.000000
      4          7.427733   1.000000
      5          9.185546   0.048261
      6         12.546996   0.000000
      7         13.754766   0.000000
      8         14.196467   0.000000

  0.3846154E+00  0.7692308E-01  0.1111111E+00  0.2629849E-02
      1          1.213713   1.000000
      2          2.945764   1.000000
      3          5.071647   1.000000
      4          6.454808   1.000000
      5          9.469410   0.058202
      6         11.705988   0.000000
      7         13.511920   0.000000
      8         14.713895   0.000000

  0.4615385E+00  0.7692308E-01  0.1111111E+00  0.2629849E-02
      1          0.871412   1.000000
      2          3.345218   1.000000
      3          5.413427   1.000000
      4          6.195232   1.000000
      5          9.614705   0.077361
      6         11.620518   0.000000
      7         13.514834   0.000000
      8         14.671496   0.000000

 -0.4615385E+00  0.7692308E-01  0.1111111E+00  0.2629849E-02
      1         -0.711082   1.000000
      2          4.587135   1.000000
      3          5.754590   1.000000
      4          7.268761   1.000000
      5          9.405862   0.011405
      6         12.439358   0.000000
      7         13.288341   0.000000
      8         14.231155   0.000000

 -0.3846154E+00  0.7692308E-01  0.1111111E+00  0.2629849E-02
      1         -2.046923   1.000000
      2          4.331969   1.000000
      3          7.701305   1.000000
      4          8.370176   0.965447
      5          9.759172  -0.005743
      6         11.592141   0.000000
      7         13.886316   0.000000
      8         14.648150   0.000000

 -0.3076923E+00  0.7692308E-01  0.1111111E+00  0.2629849E-02
      1         -3.091920   1.000000
      2          4.246072   1.000000
      3          7.782610   1.000000
      4          9.649867   0.059976
      5         11.186361   0.000000
      6         11.328165   0.000000
      7         14.327077   0.000000
      8         15.307674   0.000000

 -0.2307692E+00  0.7692308E-01  0.1111111E+00  0.2629849E-02
      1         -3.834429   1.000000
      2          4.413688   1.000000
      3          7.027384   1.000000
      4          9.313690   0.007049
      5         12.635836   0.000000
      6         13.402626   0.000000
      7         13.697374   0.000000
      8         15.870751   0.000000

 -0.1538462E+00  0.7692308E-01  0.1111111E+00  0.2629849E-02
      1         -4.268732   1.000000
      2          4.766954   1.000000
      3          6.098286   1.000000
      4          9.267679   0.161814
      5         12.110093   0.000000
      6         14.222316   0.000000
      7         15.753290   0.000000
      8         17.175388   0.000000

 -0.7692308E-01  0.7692308E-01  0.1111111E+00  0.2629849E-02
      1         -4.391918   1.000000
      2          4.716548   1.000000
      3          5.936887   1.000000
      4          9.196336   0.353714
      5         11.972547   0.000000
      6         14.342684   0.000000
      7         17.496487   0.000000
      8         17.832313   0.000000

  0.1538462E+00  0.1538462E+00  0.1111111E+00  0.1314924E-02
      1         -1.861367   1.000000
      2          3.735292   1.000000
      3          7.823854   1.000000
      4          8.291891   0.985443
      5          9.895524   0.000000
      6         11.451380   0.000000
      7         14.577492   0.000000
      8         14.894550   0.000000

  0.2307692E+00  0.1538462E+00  0.1111111E+00  0.2629849E-02
      1         -0.535539   1.000000
      2          4.051957   1.000000
      3          5.931492   1.000000
      4          6.720747   1.000000
      5         10.190832  -0.007685
      6         12.802283   0.000000
      7         13.514447   0.000000
      8         14.256026   0.000000

  0.3076923E+00  0.1538462E+00  0.1111111E+00  0.2629849E-02
      1          1.037023   1.000000
      2          3.548917   1.000000
      3          4.818378   1.000000
      4          5.590966   1.000000
      5         10.549465  -0.043891
      6         12.561229   0.000000
      7         13.601781   0.000000
      8         14.621841   0.000000

  0.3846154E+00  0.1538462E+00  0.1111111E+00  0.2629849E-02
      1          1.464347   1.000000
      2          3.049641   1.000000
      3          4.406454   1.000000
      4          5.916222   1.000000
      5         10.395925  -0.049424
      6         12.578504   0.000000
      7         13.671992   0.000000
      8         14.747559   0.000000

  0.4615385E+00  0.1538462E+00  0.1111111E+00  0.2629849E-02
      1         -0.140033   1.000000
      2          3.449918   1.000000
      3          5.362026   1.000000
      4          7.020097   1.000000
      5          9.947619  -0.035196
      6         13.171104   0.000000
      7         13.677556   0.000000
      8         14.390612   0.000000

 -0.4615385E+00  0.1538462E+00  0.1111111E+00  0.2629849E-02
      1         -1.539548   1.000000
      2          3.052746   1.000000
      3          7.521826   1.000000
      4          8.218086   1.001021
      5          9.869004  -0.000093
      6         12.094627   0.000000
      7         13.813550   0.000000
      8         15.033333   0.000000

 -0.3846154E+00  0.1538462E+00  0.1111111E+00  0.2629849E-02
      1         -2.653459   1.000000
      2          2.894807   1.000000
      3          8.095975   1.000000
      4          9.833907   0.051423
      5         11.030776   0.000000
      6         11.046048   0.000000
      7         14.351459   0.000000
      8         15.200634   0.000000

 -0.3076923E+00  0.1538462E+00  0.1111111E+00  0.2629849E-02
      1         -3.467238   1.000000
      2          3.013523   1.000000
      3          7.350027   1.000000
      4          9.840402   0.000000
      5         12.276181   0.000000
      6         13.216644   0.000000
      7         14.401111   0.000000
      8         15.376284   0.000000

 -0.2307692E+00  0.1538462E+00  0.1111111E+00  0.2629849E-02
      1         -3.974218   1.000000
      2          3.397854   1.000000
      3          6.301634   1.000000
      4          9.937753  -0.015606
      5         12.989913   0.000000
      6         13.584124   0.000000
      7         15.259016   0.000000
      8         16.698693   0.000000

 -0.1538462E+00  0.1538462E+00  0.1111111E+00  0.2629849E-02