Automatically generated mesh
     413
Reciprocal lattice
    0.00000000000000    0.00000000000000    0.00000000000000             1
    0.07692307692308    0.00000000000000    0.00000000000000             4
    0.15384615384615    0.00000000000000    0.00000000000000             4
    0.23076923076923    0.00000000000000    0.00000000000000             4
    0.30769230769231    0.00000000000000    0.00000000000000             4
    0.38461538461539    0.00000000000000    0.00000000000000             4
    0.46153846153846    0.00000000000000    0.00000000000000             4
    0.07692307692308    0.07692307692308    0.00000000000000             2
    0.15384615384615    0.07692307692308    0.00000000000000             4
    0.23076923076923    0.07692307692308    0.00000000000000             4
    0.30769230769231    0.07692307692308    0.00000000000000             4
    0.38461538461539    0.07692307692308    0.00000000000000             4
    0.46153846153846    0.07692307692308    0.00000000000000             4
   -0.46153846153846    0.07692307692308    0.00000000000000             4
   -0.38461538461539    0.07692307692308    0.00000000000000             4
   -0.30769230769231    0.07692307692308    0.00000000000000             4
   -0.23076923076923    0.07692307692308    0.00000000000000             4
   -0.15384615384615    0.07692307692308    0.00000000000000             4
   -0.07692307692308    0.07692307692308    0.00000000000000             2
    0.15384615384615    0.15384615384615    0.00000000000000             2
    0.23076923076923    0.15384615384615    0.00000000000000             4
    0.30769230769231    0.15384615384615    0.00000000000000             4
    0.38461538461539    0.15384615384615    0.00000000000000             4
    0.46153846153846    0.15384615384615    0.00000000000000             4
   -0.46153846153846    0.15384615384615    0.00000000000000             4
   -0.38461538461539    0.15384615384615    0.00000000000000             4
   -0.30769230769231    0.15384615384615    0.00000000000000             4
   -0.23076923076923    0.15384615384615    0.00000000000000             4
   -0.15384615384615    0.15384615384615    0.00000000000000             2
    0.23076923076923    0.23076923076923    0.00000000000000             2
    0.30769230769231    0.23076923076923    0.00000000000000             4
    0.38461538461539    0.23076923076923    0.00000000000000             4
    0.46153846153846    0.23076923076923    0.00000000000000             4
   -0.46153846153846    0.23076923076923    0.00000000000000             4
   -0.38461538461539    0.23076923076923    0.00000000000000             4
   -0.30769230769231    0.23076923076923    0.00000000000000             4
   -0.23076923076923    0.23076923076923    0.00000000000000             2
    0.30769230769231    0.30769230769231    0.00000000000000             2
    0.38461538461539    0.30769230769231    0.00000000000000             4
    0.46153846153846    0.30769230769231    0.00000000000000             4
   -0.46153846153846    0.30769230769231    0.00000000000000             4
   -0.38461538461539    0.30769230769231    0.00000000000000             4
   -0.30769230769231    0.30769230769231    0.00000000000000             2
    0.38461538461539    0.38461538461539    0.00000000000000             2
    0.46153846153846    0.38461538461539    0.00000000000000             4
   -0.46153846153846    0.38461538461539    0.00000000000000             4
   -0.38461538461539    0.38461538461539    0.00000000000000             2
    0.46153846153846    0.46153846153846    0.00000000000000             2
   -0.46153846153846    0.46153846153846    0.00000000000000             2
    0.00000000000000    0.00000000000000    0.11111111111112             2
    0.07692307692308    0.00000000000000    0.11111111111112             4
    0.15384615384615    0.00000000000000    0.11111111111112             4
    0.23076923076923    0.00000000000000    0.11111111111112             4
    0.30769230769231    0.00000000000000    0.11111111111112             4
    0.38461538461539    0.00000000000000    0.11111111111112             4
    0.46153846153846    0.00000000000000    0.11111111111112             4
   -0.46153846153846    0.00000000000000    0.11111111111112             4
   -0.38461538461539    0.00000000000000    0.11111111111112             4
   -0.30769230769231    0.00000000000000    0.11111111111112             4
   -0.23076923076923    0.00000000000000    0.11111111111112             4
   -0.15384615384615    0.00000000000000    0.11111111111112             4
   -0.07692307692308    0.00000000000000    0.11111111111112             4
    0.07692307692308    0.07692307692308    0.11111111111112             2
    0.15384615384615    0.07692307692308    0.11111111111112             4
    0.23076923076923    0.07692307692308    0.11111111111112             4
    0.30769230769231    0.07692307692308    0.11111111111112             4
    0.38461538461539    0.07692307692308    0.11111111111112             4
    0.46153846153846    0.07692307692308    0.11111111111112             4
   -0.46153846153846    0.07692307692308    0.11111111111112             4
   -0.38461538461539    0.07692307692308    0.11111111111112             4
   -0.30769230769231    0.07692307692308    0.11111111111112             4
   -0.23076923076923    0.07692307692308    0.11111111111112             4
   -0.15384615384615    0.07692307692308    0.11111111111112             4
   -0.07692307692308    0.07692307692308    0.11111111111112             4
    0.15384615384615    0.15384615384615    0.11111111111112             2
    0.23076923076923    0.15384615384615    0.11111111111112             4
    0.30769230769231    0.15384615384615    0.11111111111112             4
    0.38461538461539    0.15384615384615    0.11111111111112             4
    0.46153846153846    0.15384615384615    0.11111111111112             4
   -0.46153846153846    0.15384615384615    0.11111111111112             4
   -0.38461538461539    0.15384615384615    0.11111111111112             4
   -0.30769230769231    0.15384615384615    0.11111111111112             4
   -0.23076923076923    0.15384615384615    0.11111111111112             4
   -0.15384615384615    0.15384615384615    0.11111111111112             4
   -0.07692307692308    0.15384615384615    0.11111111111112             4
    0.23076923076923    0.23076923076923    0.11111111111112             2
    0.30769230769231    0.23076923076923    0.11111111111112             4
    0.38461538461539    0.23076923076923    0.11111111111112             4
    0.46153846153846    0.23076923076923    0.11111111111112             4
   -0.46153846153846    0.23076923076923    0.11111111111112             4
   -0.38461538461539    0.23076923076923    0.11111111111112             4
   -0.30769230769231    0.23076923076923    0.11111111111112             4
   -0.23076923076923    0.23076923076923    0.11111111111112             4
   -0.15384615384615    0.23076923076923    0.11111111111112             4
   -0.07692307692308    0.23076923076923    0.11111111111112             4
    0.30769230769231    0.30769230769231    0.11111111111112             2
    0.38461538461539    0.30769230769231    0.11111111111112             4
    0.46153846153846    0.30769230769231    0.11111111111112             4
   -0.46153846153846    0.30769230769231    0.11111111111112             4
   -0.38461538461539    0.30769230769231    0.11111111111112             4
   -0.30769230769231    0.30769230769231    0.11111111111112             4
   -0.23076923076923    0.30769230769231    0.11111111111112             4
   -0.15384615384615    0.30769230769231    0.11111111111112             4
   -0.07692307692308    0.30769230769231    0.11111111111112             4
    0.38461538461539    0.38461538461539    0.11111111111112             2
    0.46153846153846    0.38461538461539    0.11111111111112             4
   -0.46153846153846    0.38461538461539    0.11111111111112             4
   -0.38461538461539    0.38461538461539    0.11111111111112             4
   -0.30769230769231    0.38461538461539    0.11111111111112             4
   -0.23076923076923    0.38461538461539    0.11111111111112             4
   -0.15384615384615    0.38461538461539    0.11111111111112             4
   -0.07692307692308    0.38461538461539    0.11111111111112             4
    0.46153846153846    0.46153846153846    0.11111111111112             2
   -0.46153846153846    0.46153846153846    0.11111111111112             4
   -0.38461538461539    0.46153846153846    0.11111111111112             4
   -0.30769230769231    0.46153846153846    0.11111111111112             4
   -0.23076923076923    0.46153846153846    0.11111111111112             4
   -0.15384615384615    0.46153846153846    0.11111111111112             4
   -0.07692307692308    0.46153846153846    0.11111111111112             4
   -0.46153846153846   -0.46153846153846    0.11111111111112             2
   -0.38461538461539   -0.46153846153846    0.11111111111112             4
   -0.30769230769231   -0.46153846153846    0.11111111111112             4
   -0.23076923076923   -0.46153846153846    0.11111111111112             4
   -0.15384615384615   -0.46153846153846    0.11111111111112             4
   -0.07692307692308   -0.46153846153846    0.11111111111112             4
   -0.38461538461539   -0.38461538461539    0.11111111111112             2
   -0.30769230769231   -0.38461538461539    0.11111111111112             4
   -0.23076923076923   -0.38461538461539    0.11111111111112             4
   -0.15384615384615   -0.38461538461539    0.11111111111112             4
   -0.07692307692308   -0.38461538461539    0.11111111111112             4
   -0.30769230769231   -0.30769230769231    0.11111111111112             2
   -0.23076923076923   -0.30769230769231    0.11111111111112             4
   -0.15384615384615   -0.30769230769231    0.11111111111112             4
   -0.07692307692308   -0.30769230769231    0.11111111111112             4
   -0.23076923076923   -0.23076923076923    0.11111111111112             2
   -0.15384615384615   -0.23076923076923    0.11111111111112             4
   -0.07692307692308   -0.23076923076923    0.11111111111112             4
   -0.15384615384615   -0.15384615384615    0.11111111111112             2
   -0.07692307692308   -0.15384615384615    0.11111111111112             4
   -0.07692307692308   -0.07692307692308    0.11111111111112             2
    0.00000000000000    0.00000000000000    0.22222222222222             2
    0.07692307692308    0.00000000000000    0.22222222222222             4
    0.15384615384615    0.00000000000000    0.22222222222222             4
    0.23076923076923    0.00000000000000    0.22222222222222             4
    0.30769230769231    0.00000000000000    0.22222222222222             4
    0.38461538461539    0.00000000000000    0.22222222222222             4
    0.46153846153846    0.00000000000000    0.22222222222222             4
   -0.46153846153846    0.00000000000000    0.22222222222222             4
   -0.38461538461539    0.00000000000000    0.22222222222222             4
   -0.30769230769231    0.00000000000000    0.22222222222222             4
   -0.23076923076923    0.00000000000000    0.22222222222222             4
   -0.15384615384615    0.00000000000000    0.22222222222222             4
   -0.07692307692308    0.00000000000000    0.22222222222222             4
    0.07692307692308    0.07692307692308    0.22222222222222             2
    0.15384615384615    0.07692307692308    0.22222222222222             4
    0.23076923076923    0.07692307692308    0.22222222222222             4
    0.30769230769231    0.07692307692308    0.22222222222222             4
    0.38461538461539    0.07692307692308    0.22222222222222             4
    0.46153846153846    0.07692307692308    0.22222222222222             4
   -0.46153846153846    0.07692307692308    0.22222222222222             4
   -0.38461538461539    0.07692307692308    0.22222222222222             4
   -0.30769230769231    0.07692307692308    0.22222222222222             4
   -0.23076923076923    0.07692307692308    0.22222222222222             4
   -0.15384615384615    0.07692307692308    0.22222222222222             4
   -0.07692307692308    0.07692307692308    0.22222222222222             4
    0.15384615384615    0.15384615384615    0.22222222222222             2
    0.23076923076923    0.15384615384615    0.22222222222222             4
    0.30769230769231    0.15384615384615    0.22222222222222             4
    0.38461538461539    0.15384615384615    0.22222222222222             4
    0.46153846153846    0.15384615384615    0.22222222222222             4
   -0.46153846153846    0.15384615384615    0.22222222222222             4
   -0.38461538461539    0.15384615384615    0.22222222222222             4
   -0.30769230769231    0.15384615384615    0.22222222222222             4
   -0.23076923076923    0.15384615384615    0.22222222222222             4
   -0.15384615384615    0.15384615384615    0.22222222222222             4
   -0.07692307692308    0.15384615384615    0.22222222222222             4
    0.23076923076923    0.23076923076923    0.22222222222222             2
    0.30769230769231    0.23076923076923    0.22222222222222             4
    0.38461538461539    0.23076923076923    0.22222222222222             4
    0.46153846153846    0.23076923076923    0.22222222222222             4
   -0.46153846153846    0.23076923076923    0.22222222222222             4
   -0.38461538461539    0.23076923076923    0.22222222222222             4
   -0.30769230769231    0.23076923076923    0.22222222222222             4
   -0.23076923076923    0.23076923076923    0.22222222222222             4
   -0.15384615384615    0.23076923076923    0.22222222222222             4
   -0.07692307692308    0.23076923076923    0.22222222222222             4
    0.30769230769231    0.30769230769231    0.22222222222222             2
    0.38461538461539    0.30769230769231    0.22222222222222             4
    0.46153846153846    0.30769230769231    0.22222222222222             4
   -0.46153846153846    0.30769230769231    0.22222222222222             4
   -0.38461538461539    0.30769230769231    0.22222222222222             4
   -0.30769230769231    0.30769230769231    0.22222222222222             4
   -0.23076923076923    0.30769230769231    0.22222222222222             4
   -0.15384615384615    0.30769230769231    0.22222222222222             4
   -0.07692307692308    0.30769230769231    0.22222222222222             4
    0.38461538461539    0.38461538461539    0.22222222222222             2
    0.46153846153846    0.38461538461539    0.22222222222222             4
   -0.46153846153846    0.38461538461539    0.22222222222222             4
   -0.38461538461539    0.38461538461539    0.22222222222222             4
   -0.30769230769231    0.38461538461539    0.22222222222222             4
   -0.23076923076923    0.38461538461539    0.22222222222222             4
   -0.15384615384615    0.38461538461539    0.22222222222222             4
   -0.07692307692308    0.38461538461539    0.22222222222222             4
    0.46153846153846    0.46153846153846    0.22222222222222             2
   -0.46153846153846    0.46153846153846    0.22222222222222             4
   -0.38461538461539    0.46153846153846    0.22222222222222             4
   -0.30769230769231    0.46153846153846    0.22222222222222             4
   -0.23076923076923    0.46153846153846    0.22222222222222             4
   -0.15384615384615    0.46153846153846    0.22222222222222             4
   -0.07692307692308    0.46153846153846    0.22222222222222             4
   -0.46153846153846   -0.46153846153846    0.22222222222222             2
   -0.38461538461539   -0.46153846153846    0.22222222222222             4
   -0.30769230769231   -0.46153846153846    0.22222222222222             4
   -0.23076923076923   -0.46153846153846    0.22222222222222             4
   -0.15384615384615   -0.46153846153846    0.22222222222222             4
   -0.07692307692308   -0.46153846153846    0.22222222222222             4
   -0.38461538461539   -0.38461538461539    0.22222222222222             2
   -0.30769230769231   -0.38461538461539    0.22222222222222             4
   -0.23076923076923   -0.38461538461539    0.22222222222222             4
   -0.15384615384615   -0.38461538461539    0.22222222222222             4
   -0.07692307692308   -0.38461538461539    0.22222222222222             4
   -0.30769230769231   -0.30769230769231    0.22222222222222             2
   -0.23076923076923   -0.30769230769231    0.22222222222222             4
   -0.15384615384615   -0.30769230769231    0.22222222222222             4
   -0.07692307692308   -0.30769230769231    0.22222222222222             4
   -0.23076923076923   -0.23076923076923    0.22222222222222             2
   -0.15384615384615   -0.23076923076923    0.22222222222222             4
   -0.07692307692308   -0.23076923076923    0.22222222222222             4
   -0.15384615384615   -0.15384615384615    0.22222222222222             2
   -0.07692307692308   -0.15384615384615    0.22222222222222             4
   -0.07692307692308   -0.07692307692308    0.22222222222222             2
    0.00000000000000    0.00000000000000    0.33333333333334             2
    0.07692307692308    0.00000000000000    0.33333333333334             4
    0.15384615384615    0.00000000000000    0.33333333333334             4
    0.23076923076923    0.00000000000000    0.33333333333334             4
    0.30769230769231    0.00000000000000    0.33333333333334             4
    0.38461538461539    0.00000000000000    0.33333333333334             4
    0.46153846153846    0.00000000000000    0.33333333333334             4
   -0.46153846153846    0.00000000000000    0.33333333333334             4
   -0.38461538461539    0.00000000000000    0.33333333333334             4
   -0.30769230769231    0.00000000000000    0.33333333333334             4
   -0.23076923076923    0.00000000000000    0.33333333333334             4
   -0.15384615384615    0.00000000000000    0.33333333333334             4
   -0.07692307692308    0.00000000000000    0.33333333333334             4
    0.07692307692308    0.07692307692308    0.33333333333334             2
    0.15384615384615    0.07692307692308    0.33333333333334             4
    0.23076923076923    0.07692307692308    0.33333333333334             4
    0.30769230769231    0.07692307692308    0.33333333333334             4
    0.38461538461539    0.07692307692308    0.33333333333334             4
    0.46153846153846    0.07692307692308    0.33333333333334             4
   -0.46153846153846    0.07692307692308    0.33333333333334             4
   -0.38461538461539    0.07692307692308    0.33333333333334             4
   -0.30769230769231    0.07692307692308    0.33333333333334             4
   -0.23076923076923    0.07692307692308    0.33333333333334             4
   -0.15384615384615    0.07692307692308    0.33333333333334             4
   -0.07692307692308    0.07692307692308    0.33333333333334             4
    0.15384615384615    0.15384615384615    0.33333333333334             2
    0.23076923076923    0.15384615384615    0.33333333333334             4
    0.30769230769231    0.15384615384615    0.33333333333334             4
    0.38461538461539    0.15384615384615    0.33333333333334             4
    0.46153846153846    0.15384615384615    0.33333333333334             4
   -0.46153846153846    0.15384615384615    0.33333333333334             4
   -0.38461538461539    0.15384615384615    0.33333333333334             4
   -0.30769230769231    0.15384615384615    0.33333333333334             4
   -0.23076923076923    0.15384615384615    0.33333333333334             4
   -0.15384615384615    0.15384615384615    0.33333333333334             4
   -0.07692307692308    0.15384615384615    0.33333333333334             4
    0.23076923076923    0.23076923076923    0.33333333333334             2
    0.30769230769231    0.23076923076923    0.33333333333334             4
    0.38461538461539    0.23076923076923    0.33333333333334             4
    0.46153846153846    0.23076923076923    0.33333333333334             4
   -0.46153846153846    0.23076923076923    0.33333333333334             4
   -0.38461538461539    0.23076923076923    0.33333333333334             4
   -0.30769230769231    0.23076923076923    0.33333333333334             4
   -0.23076923076923    0.23076923076923    0.33333333333334             4
   -0.15384615384615    0.23076923076923    0.33333333333334             4
   -0.07692307692308    0.23076923076923    0.33333333333334             4
    0.30769230769231    0.30769230769231    0.33333333333334             2
    0.38461538461539    0.30769230769231    0.33333333333334             4
    0.46153846153846    0.30769230769231    0.33333333333334             4
   -0.46153846153846    0.30769230769231    0.33333333333334             4
   -0.38461538461539    0.30769230769231    0.33333333333334             4
   -0.30769230769231    0.30769230769231    0.33333333333334             4
   -0.23076923076923    0.30769230769231    0.33333333333334             4
   -0.15384615384615    0.30769230769231    0.33333333333334             4
   -0.07692307692308    0.30769230769231    0.33333333333334             4
    0.38461538461539    0.38461538461539    0.33333333333334             2
    0.46153846153846    0.38461538461539    0.33333333333334             4
   -0.46153846153846    0.38461538461539    0.33333333333334             4
   -0.38461538461539    0.38461538461539    0.33333333333334             4
   -0.30769230769231    0.38461538461539    0.33333333333334             4
   -0.23076923076923    0.38461538461539    0.33333333333334             4
   -0.15384615384615    0.38461538461539    0.33333333333334             4
   -0.07692307692308    0.38461538461539    0.33333333333334             4
    0.46153846153846    0.46153846153846    0.33333333333334             2
   -0.46153846153846    0.46153846153846    0.33333333333334             4
   -0.38461538461539    0.46153846153846    0.33333333333334             4
   -0.30769230769231    0.46153846153846    0.33333333333334             4
   -0.23076923076923    0.46153846153846    0.33333333333334             4
   -0.15384615384615    0.46153846153846    0.33333333333334             4
   -0.07692307692308    0.46153846153846    0.33333333333334             4
   -0.46153846153846   -0.46153846153846    0.33333333333334             2
   -0.38461538461539   -0.46153846153846    0.33333333333334             4
   -0.30769230769231   -0.46153846153846    0.33333333333334             4
   -0.23076923076923   -0.46153846153846    0.33333333333334             4
   -0.15384615384615   -0.46153846153846    0.33333333333334             4
   -0.07692307692308   -0.46153846153846    0.33333333333334             4
   -0.38461538461539   -0.38461538461539    0.33333333333334             2
   -0.30769230769231   -0.38461538461539    0.33333333333334             4
   -0.23076923076923   -0.38461538461539    0.33333333333334             4
   -0.15384615384615   -0.38461538461539    0.33333333333334             4
   -0.07692307692308   -0.38461538461539    0.33333333333334             4
   -0.30769230769231   -0.30769230769231    0.33333333333334             2
   -0.23076923076923   -0.30769230769231    0.33333333333334             4
   -0.15384615384615   -0.30769230769231    0.33333333333334             4
   -0.07692307692308   -0.30769230769231    0.33333333333334             4
   -0.23076923076923   -0.23076923076923    0.33333333333334             2
   -0.15384615384615   -0.23076923076923    0.33333333333334             4
   -0.07692307692308   -0.23076923076923    0.33333333333334             4
   -0.15384615384615   -0.15384615384615    0.33333333333334             2
   -0.07692307692308   -0.15384615384615    0.33333333333334             4
   -0.07692307692308   -0.07692307692308    0.33333333333334             2
    0.00000000000000    0.00000000000000    0.44444444444444             2
    0.07692307692308    0.00000000000000    0.44444444444444             4
    0.15384615384615    0.00000000000000    0.44444444444444             4
    0.23076923076923    0.00000000000000    0.44444444444444             4
    0.30769230769231    0.00000000000000    0.44444444444444             4
    0.38461538461539    0.00000000000000    0.44444444444444             4
    0.46153846153846    0.00000000000000    0.44444444444444             4
   -0.46153846153846    0.00000000000000    0.44444444444444             4
   -0.38461538461539    0.00000000000000    0.44444444444444             4
   -0.30769230769231    0.00000000000000    0.44444444444444             4
   -0.23076923076923    0.00000000000000    0.44444444444444             4
   -0.15384615384615    0.00000000000000    0.44444444444444             4
   -0.07692307692308    0.00000000000000    0.44444444444444             4
    0.07692307692308    0.07692307692308    0.44444444444444             2
    0.15384615384615    0.07692307692308    0.44444444444444             4
    0.23076923076923    0.07692307692308    0.44444444444444             4
    0.30769230769231    0.07692307692308    0.44444444444444             4
    0.38461538461539    0.07692307692308    0.44444444444444             4
    0.46153846153846    0.07692307692308    0.44444444444444             4
   -0.46153846153846    0.07692307692308    0.44444444444444             4
   -0.38461538461539    0.07692307692308    0.44444444444444             4
   -0.30769230769231    0.07692307692308    0.44444444444444             4
   -0.23076923076923    0.07692307692308    0.44444444444444             4
   -0.15384615384615    0.07692307692308    0.44444444444444             4
   -0.07692307692308    0.07692307692308    0.44444444444444             4
    0.15384615384615    0.15384615384615    0.44444444444444             2
    0.23076923076923    0.15384615384615    0.44444444444444             4
    0.30769230769231    0.15384615384615    0.44444444444444             4
    0.38461538461539    0.15384615384615    0.44444444444444             4
    0.46153846153846    0.15384615384615    0.44444444444444             4
   -0.46153846153846    0.15384615384615    0.44444444444444             4
   -0.38461538461539    0.15384615384615    0.44444444444444             4
   -0.30769230769231    0.15384615384615    0.44444444444444             4
   -0.23076923076923    0.15384615384615    0.44444444444444             4
   -0.15384615384615    0.15384615384615    0.44444444444444             4
   -0.07692307692308    0.15384615384615    0.44444444444444             4
    0.23076923076923    0.23076923076923    0.44444444444444             2
    0.30769230769231    0.23076923076923    0.44444444444444             4
    0.38461538461539    0.23076923076923    0.44444444444444             4
    0.46153846153846    0.23076923076923    0.44444444444444             4
   -0.46153846153846    0.23076923076923    0.44444444444444             4
   -0.38461538461539    0.23076923076923    0.44444444444444             4
   -0.30769230769231    0.23076923076923    0.44444444444444             4
   -0.23076923076923    0.23076923076923    0.44444444444444             4
   -0.15384615384615    0.23076923076923    0.44444444444444             4
   -0.07692307692308    0.23076923076923    0.44444444444444             4
    0.30769230769231    0.30769230769231    0.44444444444444             2
    0.38461538461539    0.30769230769231    0.44444444444444             4
    0.46153846153846    0.30769230769231    0.44444444444444             4
   -0.46153846153846    0.30769230769231    0.44444444444444             4
   -0.38461538461539    0.30769230769231    0.44444444444444             4
   -0.30769230769231    0.30769230769231    0.44444444444444             4
   -0.23076923076923    0.30769230769231    0.44444444444444             4
   -0.15384615384615    0.30769230769231    0.44444444444444             4
   -0.07692307692308    0.30769230769231    0.44444444444444             4
    0.38461538461539    0.38461538461539    0.44444444444444             2
    0.46153846153846    0.38461538461539    0.44444444444444             4
   -0.46153846153846    0.38461538461539    0.44444444444444             4
   -0.38461538461539    0.38461538461539    0.44444444444444             4
   -0.30769230769231    0.38461538461539    0.44444444444444             4
   -0.23076923076923    0.38461538461539    0.44444444444444             4
   -0.15384615384615    0.38461538461539    0.44444444444444             4
   -0.07692307692308    0.38461538461539    0.44444444444444             4
    0.46153846153846    0.46153846153846    0.44444444444444             2
   -0.46153846153846    0.46153846153846    0.44444444444444             4
   -0.38461538461539    0.46153846153846    0.44444444444444             4
   -0.30769230769231    0.46153846153846    0.44444444444444             4
   -0.23076923076923    0.46153846153846    0.44444444444444             4
   -0.15384615384615    0.46153846153846    0.44444444444444             4
   -0.07692307692308    0.46153846153846    0.44444444444444             4
   -0.46153846153846   -0.46153846153846    0.44444444444444             2
   -0.38461538461539   -0.46153846153846    0.44444444444444             4
   -0.30769230769231   -0.46153846153846    0.44444444444444             4
   -0.23076923076923   -0.46153846153846    0.44444444444444             4
   -0.15384615384615   -0.46153846153846    0.44444444444444             4
   -0.07692307692308   -0.46153846153846    0.44444444444444             4
   -0.38461538461539   -0.38461538461539    0.44444444444444             2