       N       E                     dE             d eps       ncg     rms          rms(c)
DAV:   1    -0.102673742734E+02   -0.10267E+02   -0.70554E-07  3678   0.841E-03    0.147E-03
DAV:   2    -0.102673744674E+02   -0.19406E-06   -0.93944E-08  3552   0.291E-03
   1 F= -.10267374E+02 E0= -.10267374E+02  d E =0.000000E+00
       N       E                     dE             ncg
DAV:   1     0.948154730698E+04   -0.19314E+05     2250
DAV:   2     0.681447309050E+04   -0.26671E+04     2758
DAV:   3     0.670124275355E+04   -0.11323E+03     2824
DAV:   4     0.670007227864E+04   -0.11705E+01     2698
DAV:   5     0.670006038149E+04   -0.11897E-01     2500
DAV:   6     0.670006014839E+04   -0.23310E-03     1952
DAV:   7     0.670006012271E+04   -0.25682E-04     1640
