 vasp.6.4.2 20Jul23 (build Oct 18 2023 12:49:41) complex                         
 executed on             LinuxGNU date 2025.04.10  21:34:24
 running    2 mpi-ranks, with    1 threads/rank, on    1 nodes
 distrk:  each k-point on    2 cores,    1 groups
 distr:  one band on NCORE=   2 cores,    1 groups


--------------------------------------------------------------------------------------------------------


 INCAR:
   SYSTEM = POSCAR-si-sym141
   ISMEAR = -5
   ENCUT = 400
   KSPACING = 0.207345
   LORBIT = 11
   NCORE = 2
   NSIM = 1

 POTCAR:    PAW_PBE Si 05Jan2001                  
 POTCAR:    PAW_PBE Si 05Jan2001                  
   SHA256 =  79d9987ad8750f624c4d6acb2a16d13abf6a777132adc04dc6c8399be72b42bb Si/POTCAR             
   COPYR  = (c) Copyright 05Jan2001 Georg Kresse                                                    
   COPYR  = This file is part of the software VASP. Any use, copying, and all other rights are regul
   COPYR  = If you do not have a valid VASP license, you may not use, copy or distribute this file. 
   VRHFIN =Si: s2p2                                                                                 
   LEXCH  = PE                                                                                      
   EATOM  =   103.0669 eV,    7.5752 Ry                                                             
                                                                                                    
   TITEL  = PAW_PBE Si 05Jan2001                                                                    
   LULTRA =        F    use ultrasoft PP ?                                                          
   IUNSCR =        1    unscreen: 0-lin 1-nonlin 2-no                                               
   RPACOR =    1.500    partial core radius                                                         
   POMASS =   28.085; ZVAL   =    4.000    mass and valenz                                          
   RCORE  =    1.900    outmost cutoff radius                                                       
   RWIGS  =    2.480; RWIGS  =    1.312    wigner-seitz radius (au A)                               
   ENMAX  =  245.345; ENMIN  =  184.009 eV                                                          
   ICORE  =        2    local potential                                                             
   LCOR   =        T    correct aug charges                                                         
   LPAW   =        T    paw PP                                                                      
   EAUG   =  322.069                                                                                
   DEXC   =    0.000                                                                                
   RMAX   =    1.950    core radius for proj-oper                                                   
   RAUG   =    1.300    factor for augmentation sphere                                              
   RDEP   =    1.993    radius for radial grids                                                     
   RDEPT  =    1.837    core radius for aug-charge                                                  
                                                                                                    
   Atomic configuration                                                                             
    6 entries                                                                                       
     n  l   j            E        occ.                                                              
     1  0  0.50     -1785.8828   2.0000                                                             
     2  0  0.50      -139.4969   2.0000                                                             
     2  1  1.50       -95.5546   6.0000                                                             
     3  0  0.50       -10.8127   2.0000                                                             
     3  1  0.50        -4.0811   2.0000                                                             
     3  2  1.50        -4.0817   0.0000                                                             
   Description                                                                                      
     l       E           TYP  RCUT    TYP  RCUT                                                     
     0    -10.8127223     23  1.900                                                                 
     0     -7.6451159     23  1.900                                                                 
     1     -4.0811372     23  1.900                                                                 
     1      2.4879257     23  1.900                                                                 
     2     -4.0817478      7  1.900                                                                 
  local pseudopotential read in
  partial core-charges read in
  partial kinetic energy density read in
  atomic valenz-charges read in
  non local Contribution for L=           0  read in
    real space projection operators read in
  non local Contribution for L=           0  read in
    real space projection operators read in
  non local Contribution for L=           1  read in
    real space projection operators read in
  non local Contribution for L=           1  read in
    real space projection operators read in
    PAW grid and wavefunctions read in

   number of l-projection  operators is LMAX  =           4
   number of lm-projection operators is LMMAX =           8

  PAW_PBE Si 05Jan2001                  :
 energy of atom  1       EATOM= -103.0669
 kinetic energy error for atom=    0.0012 (will be added to EATOM!!)


 POSCAR: SYSTEM
  positions in direct lattice
  No initial velocities read in
 exchange correlation table for  LEXCH =        8
   RHO(1)=    0.500       N(1)  =     2000
   RHO(2)=  100.500       N(2)  =     4000



--------------------------------------------------------------------------------------------------------


 ion  position               nearest neighbor table
   1  0.750  0.250  0.500-   2 2.49   2 2.49   2 2.49   2 2.49   2 3.13   2 3.13   2 3.13   2 3.13

   2  0.000  0.000  0.000-   1 2.49   1 2.49   1 2.49   1 2.49   1 3.13   1 3.13   1 3.13   1 3.13


  LATTYP: Found a body centered tetragonal cell.
 ALAT       =     4.7969142158
 C/A-ratio  =     0.5571955251
  
  Lattice vectors:
  
 A1 = (   3.6457059309,   0.0000000000,   0.0000000000)
 A2 = (  -2.6659283149,   2.4867645555,   0.0000000000)
 A3 = (  -0.4898854949,  -1.2433738688,   3.3919323096)


Analysis of symmetry for initial positions (statically):
=====================================================================
 Subroutine PRICEL returns:
 Original cell was already a primitive cell.
 

 Routine SETGRP: Setting up the symmetry group for a 
 body centered tetragonal supercell.


 Subroutine GETGRP returns: Found 16 space group operations
 (whereof  8 operations were pure point group operations)
 out of a pool of 16 trial point group operations.


The static configuration has the point symmetry D_2d.
 The point group associated with its full space group is D_4h.


Analysis of symmetry for dynamics (positions and initial velocities):
=====================================================================
 Subroutine PRICEL returns:
 Original cell was already a primitive cell.
 

 Routine SETGRP: Setting up the symmetry group for a 
 body centered tetragonal supercell.


 Subroutine GETGRP returns: Found 16 space group operations
 (whereof  8 operations were pure point group operations)
 out of a pool of 16 trial point group operations.


The dynamic configuration has the point symmetry D_2d.
 The point group associated with its full space group is D_4h.


 Subroutine INISYM returns: Found 16 space group operations
 (whereof  8 operations are pure point group operations),
 and found     1 'primitive' translations


----------------------------------------------------------------------------------------

                                     Primitive cell                                     

  volume of cell :      30.7513

  direct lattice vectors                    reciprocal lattice vectors
     3.645705931  0.000000000  0.000000000     0.274295299  0.294057435  0.147407605
    -2.665928315  2.486764555  0.000000000    -0.000000000  0.402128942  0.147407605
    -0.489885495 -1.243373869  3.391932310     0.000000000 -0.000000000  0.294817204

  length of vectors
     3.645705931  3.645705931  3.645705853     0.428295095  0.428295095  0.294817204

  position of ions in fractional coordinates (direct lattice)
     0.750000000  0.250000000  0.500000000
     0.000000000  0.000000000  0.000000000

  ion indices of the primitive-cell ions
   primitive index   ion index
                 1           1
                 2           2

----------------------------------------------------------------------------------------


 -----------------------------------------------------------------------------
|                                                                             |
|           W    W    AA    RRRRR   N    N  II  N    N   GGGG   !!!           |
|           W    W   A  A   R    R  NN   N  II  NN   N  G    G  !!!           |
|           W    W  A    A  R    R  N N  N  II  N N  N  G       !!!           |
|           W WW W  AAAAAA  RRRRR   N  N N  II  N  N N  G  GGG   !            |
|           WW  WW  A    A  R   R   N   NN  II  N   NN  G    G                |
|           W    W  A    A  R    R  N    N  II  N    N   GGGG   !!!           |
|                                                                             |
|     The requested file  could not be found or opened for reading            |
|     k-point information. Automatic k-point generation is used as a          |
|     fallback, which may lead to unwanted results.                           |
|                                                                             |
 -----------------------------------------------------------------------------



Automatic generation of k-mesh.
 Grid dimensions derived from KSPACING:
 generate k-points for:   13   13    9

 Generating k-lattice:

  Cartesian coordinates                     Fractional coordinates (reciprocal lattice)
     0.021099638  0.022619803  0.011339047     0.076923077 -0.000000000 -0.000000000
    -0.000000000  0.030932996  0.011339047     0.000000000  0.076923077 -0.000000000
     0.000000000 -0.000000000  0.032757467     0.000000000  0.000000000  0.111111111

  Length of vectors
     0.032945777  0.032945777  0.032757467

  Shift w.r.t. Gamma in fractional coordinates (k-lattice)
     0.000000000  0.000000000  0.000000000

 -----------------------------------------------------------------------------
|                                                                             |
|           W    W    AA    RRRRR   N    N  II  N    N   GGGG   !!!           |
|           W    W   A  A   R    R  NN   N  II  NN   N  G    G  !!!           |
|           W    W  A    A  R    R  N N  N  II  N N  N  G       !!!           |
|           W WW W  AAAAAA  RRRRR   N  N N  II  N  N N  G  GGG   !            |
|           WW  WW  A    A  R   R   N   NN  II  N   NN  G    G                |
|           W    W  A    A  R    R  N    N  II  N    N   GGGG   !!!           |
|                                                                             |
|     Your reciprocal lattice and k-lattice belong to different lattice       |
|     classes:                                                                |
|                                                                             |
|        The reciprocal lattice is body-centered tetragonal,                  |
|        whereas your k-lattice is base-centered monoclinic.                  |
|                                                                             |
|     Results are often still useful ...                                      |
|                                                                             |
 -----------------------------------------------------------------------------

 WARNING: IBZKPT: internal override: KBLOWUP is changed to .FALSE.
      ... skipping the blow-up phase ...

 TETIRR: Found   4540 inequivalent tetrahedra from     9126
 
 Subroutine IBZKPT returns following result:
 ===========================================
 
 Found    413 irreducible k-points:
 
 Following reciprocal coordinates:
            Coordinates               Weight
  0.000000  0.000000  0.000000      1.000000
  0.076923  0.000000  0.000000      4.000000
  0.153846  0.000000  0.000000      4.000000
  0.230769  0.000000  0.000000      4.000000
  0.307692  0.000000  0.000000      4.000000
  0.384615  0.000000  0.000000      4.000000
  0.461538  0.000000  0.000000      4.000000
  0.076923  0.076923  0.000000      2.000000
  0.153846  0.076923  0.000000      4.000000
  0.230769  0.076923  0.000000      4.000000
  0.307692  0.076923  0.000000      4.000000
  0.384615  0.076923  0.000000      4.000000
  0.461538  0.076923  0.000000      4.000000
 -0.461538  0.076923  0.000000      4.000000
 -0.384615  0.076923  0.000000      4.000000
 -0.307692  0.076923  0.000000      4.000000
 -0.230769  0.076923  0.000000      4.000000
 -0.153846  0.076923  0.000000      4.000000
 -0.076923  0.076923  0.000000      2.000000
  0.153846  0.153846  0.000000      2.000000
  0.230769  0.153846  0.000000      4.000000
  0.307692  0.153846  0.000000      4.000000
  0.384615  0.153846  0.000000      4.000000
  0.461538  0.153846  0.000000      4.000000
 -0.461538  0.153846  0.000000      4.000000
 -0.384615  0.153846  0.000000      4.000000
 -0.307692  0.153846  0.000000      4.000000
 -0.230769  0.153846  0.000000      4.000000
 -0.153846  0.153846  0.000000      2.000000
  0.230769  0.230769  0.000000      2.000000
  0.307692  0.230769  0.000000      4.000000
  0.384615  0.230769  0.000000      4.000000
  0.461538  0.230769  0.000000      4.000000
 -0.461538  0.230769  0.000000      4.000000
 -0.384615  0.230769  0.000000      4.000000
 -0.307692  0.230769  0.000000      4.000000
 -0.230769  0.230769  0.000000      2.000000
  0.307692  0.307692  0.000000      2.000000
  0.384615  0.307692  0.000000      4.000000
  0.461538  0.307692  0.000000      4.000000
 -0.461538  0.307692  0.000000      4.000000
 -0.384615  0.307692  0.000000      4.000000
 -0.307692  0.307692  0.000000      2.000000
  0.384615  0.384615  0.000000      2.000000
  0.461538  0.384615  0.000000      4.000000
 -0.461538  0.384615  0.000000      4.000000
 -0.384615  0.384615  0.000000      2.000000
  0.461538  0.461538  0.000000      2.000000
 -0.461538  0.461538  0.000000      2.000000
  0.000000  0.000000  0.111111      2.000000
  0.076923  0.000000  0.111111      4.000000
  0.153846  0.000000  0.111111      4.000000
  0.230769  0.000000  0.111111      4.000000
  0.307692  0.000000  0.111111      4.000000
  0.384615  0.000000  0.111111      4.000000
  0.461538  0.000000  0.111111      4.000000
 -0.461538  0.000000  0.111111      4.000000
 -0.384615  0.000000  0.111111      4.000000
 -0.307692  0.000000  0.111111      4.000000
 -0.230769  0.000000  0.111111      4.000000
 -0.153846  0.000000  0.111111      4.000000
 -0.076923  0.000000  0.111111      4.000000
  0.076923  0.076923  0.111111      2.000000
  0.153846  0.076923  0.111111      4.000000
  0.230769  0.076923  0.111111      4.000000
  0.307692  0.076923  0.111111      4.000000
  0.384615  0.076923  0.111111      4.000000
  0.461538  0.076923  0.111111      4.000000
 -0.461538  0.076923  0.111111      4.000000
 -0.384615  0.076923  0.111111      4.000000
 -0.307692  0.076923  0.111111      4.000000
 -0.230769  0.076923  0.111111      4.000000
 -0.153846  0.076923  0.111111      4.000000
 -0.076923  0.076923  0.111111      4.000000
  0.153846  0.153846  0.111111      2.000000
  0.230769  0.153846  0.111111      4.000000
  0.307692  0.153846  0.111111      4.000000
  0.384615  0.153846  0.111111      4.000000
  0.461538  0.153846  0.111111      4.000000
 -0.461538  0.153846  0.111111      4.000000
 -0.384615  0.153846  0.111111      4.000000
 -0.307692  0.153846  0.111111      4.000000
 -0.230769  0.153846  0.111111      4.000000
 -0.153846  0.153846  0.111111      4.000000
 -0.076923  0.153846  0.111111      4.000000
  0.230769  0.230769  0.111111      2.000000
  0.307692  0.230769  0.111111      4.000000
  0.384615  0.230769  0.111111      4.000000
  0.461538  0.230769  0.111111      4.000000
 -0.461538  0.230769  0.111111      4.000000
 -0.384615  0.230769  0.111111      4.000000
 -0.307692  0.230769  0.111111      4.000000
 -0.230769  0.230769  0.111111      4.000000
 -0.153846  0.230769  0.111111      4.000000
 -0.076923  0.230769  0.111111      4.000000
  0.307692  0.307692  0.111111      2.000000
  0.384615  0.307692  0.111111      4.000000
  0.461538  0.307692  0.111111      4.000000
 -0.461538  0.307692  0.111111      4.000000
 -0.384615  0.307692  0.111111      4.000000
 -0.307692  0.307692  0.111111      4.000000
 -0.230769  0.307692  0.111111      4.000000
 -0.153846  0.307692  0.111111      4.000000
 -0.076923  0.307692  0.111111      4.000000
  0.384615  0.384615  0.111111      2.000000
  0.461538  0.384615  0.111111      4.000000
 -0.461538  0.384615  0.111111      4.000000
 -0.384615  0.384615  0.111111      4.000000
 -0.307692  0.384615  0.111111      4.000000
 -0.230769  0.384615  0.111111      4.000000
 -0.153846  0.384615  0.111111      4.000000
 -0.076923  0.384615  0.111111      4.000000
  0.461538  0.461538  0.111111      2.000000
 -0.461538  0.461538  0.111111      4.000000
 -0.384615  0.461538  0.111111      4.000000
 -0.307692  0.461538  0.111111      4.000000
 -0.230769  0.461538  0.111111      4.000000
 -0.153846  0.461538  0.111111      4.000000
 -0.076923  0.461538  0.111111      4.000000
 -0.461538 -0.461538  0.111111      2.000000
 -0.384615 -0.461538  0.111111      4.000000
 -0.307692 -0.461538  0.111111      4.000000
 -0.230769 -0.461538  0.111111      4.000000
 -0.153846 -0.461538  0.111111      4.000000
 -0.076923 -0.461538  0.111111      4.000000
 -0.384615 -0.384615  0.111111      2.000000
 -0.307692 -0.384615  0.111111      4.000000
 -0.230769 -0.384615  0.111111      4.000000
 -0.153846 -0.384615  0.111111      4.000000
 -0.076923 -0.384615  0.111111      4.000000
 -0.307692 -0.307692  0.111111      2.000000
 -0.230769 -0.307692  0.111111      4.000000
 -0.153846 -0.307692  0.111111      4.000000
 -0.076923 -0.307692  0.111111      4.000000
 -0.230769 -0.230769  0.111111      2.000000
 -0.153846 -0.230769  0.111111      4.000000
 -0.076923 -0.230769  0.111111      4.000000
 -0.153846 -0.153846  0.111111      2.000000
 -0.076923 -0.153846  0.111111      4.000000
 -0.076923 -0.076923  0.111111      2.000000
  0.000000  0.000000  0.222222      2.000000
  0.076923  0.000000  0.222222      4.000000
  0.153846  0.000000  0.222222      4.000000
  0.230769  0.000000  0.222222      4.000000
  0.307692  0.000000  0.222222      4.000000
  0.384615  0.000000  0.222222      4.000000
  0.461538  0.000000  0.222222      4.000000
 -0.461538  0.000000  0.222222      4.000000
 -0.384615  0.000000  0.222222      4.000000
 -0.307692  0.000000  0.222222      4.000000
 -0.230769  0.000000  0.222222      4.000000
 -0.153846  0.000000  0.222222      4.000000
 -0.076923  0.000000  0.222222      4.000000
  0.076923  0.076923  0.222222      2.000000
  0.153846  0.076923  0.222222      4.000000
  0.230769  0.076923  0.222222      4.000000
  0.307692  0.076923  0.222222      4.000000
  0.384615  0.076923  0.222222      4.000000
  0.461538  0.076923  0.222222      4.000000
 -0.461538  0.076923  0.222222      4.000000
 -0.384615  0.076923  0.222222      4.000000
 -0.307692  0.076923  0.222222      4.000000
 -0.230769  0.076923  0.222222      4.000000
 -0.153846  0.076923  0.222222      4.000000
 -0.076923  0.076923  0.222222      4.000000
  0.153846  0.153846  0.222222      2.000000
  0.230769  0.153846  0.222222      4.000000
  0.307692  0.153846  0.222222      4.000000
  0.384615  0.153846  0.222222      4.000000
  0.461538  0.153846  0.222222      4.000000
 -0.461538  0.153846  0.222222      4.000000
 -0.384615  0.153846  0.222222      4.000000
 -0.307692  0.153846  0.222222      4.000000
 -0.230769  0.153846  0.222222      4.000000
 -0.153846  0.153846  0.222222      4.000000
 -0.076923  0.153846  0.222222      4.000000
  0.230769  0.230769  0.222222      2.000000
  0.307692  0.230769  0.222222      4.000000
  0.384615  0.230769  0.222222      4.000000
  0.461538  0.230769  0.222222      4.000000
 -0.461538  0.230769  0.222222      4.000000
 -0.384615  0.230769  0.222222      4.000000
 -0.307692  0.230769  0.222222      4.000000
 -0.230769  0.230769  0.222222      4.000000
 -0.153846  0.230769  0.222222      4.000000
 -0.076923  0.230769  0.222222      4.000000
  0.307692  0.307692  0.222222      2.000000
  0.384615  0.307692  0.222222      4.000000
  0.461538  0.307692  0.222222      4.000000
 -0.461538  0.307692  0.222222      4.000000
 -0.384615  0.307692  0.222222      4.000000
 -0.307692  0.307692  0.222222      4.000000
 -0.230769  0.307692  0.222222      4.000000
 -0.153846  0.307692  0.222222      4.000000
 -0.076923  0.307692  0.222222      4.000000
  0.384615  0.384615  0.222222      2.000000
  0.461538  0.384615  0.222222      4.000000
 -0.461538  0.384615  0.222222      4.000000
 -0.384615  0.384615  0.222222      4.000000
 -0.307692  0.384615  0.222222      4.000000
 -0.230769  0.384615  0.222222      4.000000
 -0.153846  0.384615  0.222222      4.000000
 -0.076923  0.384615  0.222222      4.000000
  0.461538  0.461538  0.222222      2.000000
 -0.461538  0.461538  0.222222      4.000000
 -0.384615  0.461538  0.222222      4.000000
 -0.307692  0.461538  0.222222      4.000000
 -0.230769  0.461538  0.222222      4.000000
 -0.153846  0.461538  0.222222      4.000000
 -0.076923  0.461538  0.222222      4.000000
 -0.461538 -0.461538  0.222222      2.000000
 -0.384615 -0.461538  0.222222      4.000000
 -0.307692 -0.461538  0.222222      4.000000
 -0.230769 -0.461538  0.222222      4.000000
 -0.153846 -0.461538  0.222222      4.000000
 -0.076923 -0.461538  0.222222      4.000000
 -0.384615 -0.384615  0.222222      2.000000
 -0.307692 -0.384615  0.222222      4.000000
 -0.230769 -0.384615  0.222222      4.000000
 -0.153846 -0.384615  0.222222      4.000000
 -0.076923 -0.384615  0.222222      4.000000
 -0.307692 -0.307692  0.222222      2.000000
 -0.230769 -0.307692  0.222222      4.000000
 -0.153846 -0.307692  0.222222      4.000000
 -0.076923 -0.307692  0.222222      4.000000
 -0.230769 -0.230769  0.222222      2.000000
 -0.153846 -0.230769  0.222222      4.000000
 -0.076923 -0.230769  0.222222      4.000000
 -0.153846 -0.153846  0.222222      2.000000
 -0.076923 -0.153846  0.222222      4.000000
 -0.076923 -0.076923  0.222222      2.000000
  0.000000  0.000000  0.333333      2.000000
  0.076923  0.000000  0.333333      4.000000
  0.153846  0.000000  0.333333      4.000000
  0.230769  0.000000  0.333333      4.000000
  0.307692  0.000000  0.333333      4.000000
  0.384615  0.000000  0.333333      4.000000
  0.461538  0.000000  0.333333      4.000000
 -0.461538  0.000000  0.333333      4.000000
 -0.384615  0.000000  0.333333      4.000000
 -0.307692  0.000000  0.333333      4.000000
 -0.230769  0.000000  0.333333      4.000000
 -0.153846  0.000000  0.333333      4.000000
 -0.076923  0.000000  0.333333      4.000000
  0.076923  0.076923  0.333333      2.000000
  0.153846  0.076923  0.333333      4.000000
  0.230769  0.076923  0.333333      4.000000
  0.307692  0.076923  0.333333      4.000000
  0.384615  0.076923  0.333333      4.000000
  0.461538  0.076923  0.333333      4.000000
 -0.461538  0.076923  0.333333      4.000000
 -0.384615  0.076923  0.333333      4.000000
 -0.307692  0.076923  0.333333      4.000000
 -0.230769  0.076923  0.333333      4.000000
 -0.153846  0.076923  0.333333      4.000000
 -0.076923  0.076923  0.333333      4.000000
  0.153846  0.153846  0.333333      2.000000
  0.230769  0.153846  0.333333      4.000000
  0.307692  0.153846  0.333333      4.000000
  0.384615  0.153846  0.333333      4.000000
  0.461538  0.153846  0.333333      4.000000
 -0.461538  0.153846  0.333333      4.000000
 -0.384615  0.153846  0.333333      4.000000
 -0.307692  0.153846  0.333333      4.000000
 -0.230769  0.153846  0.333333      4.000000
 -0.153846  0.153846  0.333333      4.000000
 -0.076923  0.153846  0.333333      4.000000
  0.230769  0.230769  0.333333      2.000000
  0.307692  0.230769  0.333333      4.000000
  0.384615  0.230769  0.333333      4.000000
  0.461538  0.230769  0.333333      4.000000
 -0.461538  0.230769  0.333333      4.000000
 -0.384615  0.230769  0.333333      4.000000
 -0.307692  0.230769  0.333333      4.000000
 -0.230769  0.230769  0.333333      4.000000
 -0.153846  0.230769  0.333333      4.000000
 -0.076923  0.230769  0.333333      4.000000
  0.307692  0.307692  0.333333      2.000000
  0.384615  0.307692  0.333333      4.000000
  0.461538  0.307692  0.333333      4.000000
 -0.461538  0.307692  0.333333      4.000000
 -0.384615  0.307692  0.333333      4.000000
 -0.307692  0.307692  0.333333      4.000000
 -0.230769  0.307692  0.333333      4.000000
 -0.153846  0.307692  0.333333      4.000000
 -0.076923  0.307692  0.333333      4.000000
  0.384615  0.384615  0.333333      2.000000
  0.461538  0.384615  0.333333      4.000000
 -0.461538  0.384615  0.333333      4.000000
 -0.384615  0.384615  0.333333      4.000000
 -0.307692  0.384615  0.333333      4.000000
 -0.230769  0.384615  0.333333      4.000000
 -0.153846  0.384615  0.333333      4.000000
 -0.076923  0.384615  0.333333      4.000000
  0.461538  0.461538  0.333333      2.000000
 -0.461538  0.461538  0.333333      4.000000
 -0.384615  0.461538  0.333333      4.000000
 -0.307692  0.461538  0.333333      4.000000
 -0.230769  0.461538  0.333333      4.000000
 -0.153846  0.461538  0.333333      4.000000
 -0.076923  0.461538  0.333333      4.000000
 -0.461538 -0.461538  0.333333      2.000000
 -0.384615 -0.461538  0.333333      4.000000
 -0.307692 -0.461538  0.333333      4.000000
 -0.230769 -0.461538  0.333333      4.000000
 -0.153846 -0.461538  0.333333      4.000000
 -0.076923 -0.461538  0.333333      4.000000
 -0.384615 -0.384615  0.333333      2.000000
 -0.307692 -0.384615  0.333333      4.000000
 -0.230769 -0.384615  0.333333      4.000000
 -0.153846 -0.384615  0.333333      4.000000
 -0.076923 -0.384615  0.333333      4.000000
 -0.307692 -0.307692  0.333333      2.000000
 -0.230769 -0.307692  0.333333      4.000000
 -0.153846 -0.307692  0.333333      4.000000
 -0.076923 -0.307692  0.333333      4.000000
 -0.230769 -0.230769  0.333333      2.000000
 -0.153846 -0.230769  0.333333      4.000000
 -0.076923 -0.230769  0.333333      4.000000
 -0.153846 -0.153846  0.333333      2.000000
 -0.076923 -0.153846  0.333333      4.000000
 -0.076923 -0.076923  0.333333      2.000000
  0.000000  0.000000  0.444444      2.000000
  0.076923  0.000000  0.444444      4.000000
  0.153846  0.000000  0.444444      4.000000
  0.230769  0.000000  0.444444      4.000000
  0.307692  0.000000  0.444444      4.000000
  0.384615  0.000000  0.444444      4.000000
  0.461538  0.000000  0.444444      4.000000
 -0.461538  0.000000  0.444444      4.000000
 -0.384615  0.000000  0.444444      4.000000
 -0.307692  0.000000  0.444444      4.000000
 -0.230769  0.000000  0.444444      4.000000
 -0.153846  0.000000  0.444444      4.000000
 -0.076923  0.000000  0.444444      4.000000
  0.076923  0.076923  0.444444      2.000000
  0.153846  0.076923  0.444444      4.000000
  0.230769  0.076923  0.444444      4.000000
  0.307692  0.076923  0.444444      4.000000
  0.384615  0.076923  0.444444      4.000000
  0.461538  0.076923  0.444444      4.000000
 -0.461538  0.076923  0.444444      4.000000
 -0.384615  0.076923  0.444444      4.000000
 -0.307692  0.076923  0.444444      4.000000
 -0.230769  0.076923  0.444444      4.000000
 -0.153846  0.076923  0.444444      4.000000
 -0.076923  0.076923  0.444444      4.000000
  0.153846  0.153846  0.444444      2.000000
  0.230769  0.153846  0.444444      4.000000
  0.307692  0.153846  0.444444      4.000000
  0.384615  0.153846  0.444444      4.000000
  0.461538  0.153846  0.444444      4.000000
 -0.461538  0.153846  0.444444      4.000000
 -0.384615  0.153846  0.444444      4.000000
 -0.307692  0.153846  0.444444      4.000000
 -0.230769  0.153846  0.444444      4.000000
 -0.153846  0.153846  0.444444      4.000000
 -0.076923  0.153846  0.444444      4.000000
  0.230769  0.230769  0.444444      2.000000
  0.307692  0.230769  0.444444      4.000000
  0.384615  0.230769  0.444444      4.000000
  0.461538  0.230769  0.444444      4.000000
 -0.461538  0.230769  0.444444      4.000000
 -0.384615  0.230769  0.444444      4.000000
 -0.307692  0.230769  0.444444      4.000000
 -0.230769  0.230769  0.444444      4.000000
 -0.153846  0.230769  0.444444      4.000000
 -0.076923  0.230769  0.444444      4.000000
  0.307692  0.307692  0.444444      2.000000
  0.384615  0.307692  0.444444      4.000000
  0.461538  0.307692  0.444444      4.000000
 -0.461538  0.307692  0.444444      4.000000
 -0.384615  0.307692  0.444444      4.000000
 -0.307692  0.307692  0.444444      4.000000
 -0.230769  0.307692  0.444444      4.000000
 -0.153846  0.307692  0.444444      4.000000
 -0.076923  0.307692  0.444444      4.000000
  0.384615  0.384615  0.444444      2.000000
  0.461538  0.384615  0.444444      4.000000
 -0.461538  0.384615  0.444444      4.000000
 -0.384615  0.384615  0.444444      4.000000
 -0.307692  0.384615  0.444444      4.000000
 -0.230769  0.384615  0.444444      4.000000
 -0.153846  0.384615  0.444444      4.000000
 -0.076923  0.384615  0.444444      4.000000
  0.461538  0.461538  0.444444      2.000000
 -0.461538  0.461538  0.444444      4.000000
 -0.384615  0.461538  0.444444      4.000000
 -0.307692  0.461538  0.444444      4.000000
 -0.230769  0.461538  0.444444      4.000000
 -0.153846  0.461538  0.444444      4.000000
 -0.076923  0.461538  0.444444      4.000000
 -0.461538 -0.461538  0.444444      2.000000
 -0.384615 -0.461538  0.444444      4.000000
 -0.307692 -0.461538  0.444444      4.000000
 -0.230769 -0.461538  0.444444      4.000000
 -0.153846 -0.461538  0.444444      4.000000
 -0.076923 -0.461538  0.444444      4.000000
 -0.384615 -0.384615  0.444444      2.000000
 -0.307692 -0.384615  0.444444      4.000000
 -0.230769 -0.384615  0.444444      4.000000
 -0.153846 -0.384615  0.444444      4.000000
 -0.076923 -0.384615  0.444444      4.000000
 -0.307692 -0.307692  0.444444      2.000000
 -0.230769 -0.307692  0.444444      4.000000
 -0.153846 -0.307692  0.444444      4.000000
 -0.076923 -0.307692  0.444444      4.000000
 -0.230769 -0.230769  0.444444      2.000000
 -0.153846 -0.230769  0.444444      4.000000
 -0.076923 -0.230769  0.444444      4.000000
 -0.153846 -0.153846  0.444444      2.000000
 -0.076923 -0.153846  0.444444      4.000000
 -0.076923 -0.076923  0.444444      2.000000
 
 Following cartesian coordinates:
            Coordinates               Weight
  0.000000  0.000000  0.000000      1.000000
  0.021106  0.022626  0.011342      4.000000
  0.042211  0.045252  0.022684      4.000000
  0.063317  0.067878  0.034027      4.000000
  0.084422  0.090505  0.045369      4.000000
  0.105528  0.113131  0.056711      4.000000
  0.126633  0.135757  0.068053      4.000000
  0.021106  0.053568  0.022684      2.000000
  0.042211  0.076194  0.034027      4.000000
  0.063317  0.098820  0.045369      4.000000
  0.084422  0.121446  0.056711      4.000000
  0.105528  0.144072  0.068053      4.000000
  0.126633  0.166699  0.079396      4.000000
 -0.126633 -0.104815 -0.056711      4.000000
 -0.105528 -0.082189 -0.045369      4.000000
 -0.084422 -0.059563 -0.034027      4.000000
 -0.063317 -0.036937 -0.022684      4.000000
 -0.042211 -0.014311 -0.011342      4.000000
 -0.021106  0.008316  0.000000      2.000000
  0.042211  0.107136  0.045369      2.000000
  0.063317  0.129762  0.056711      4.000000
  0.084422  0.152388  0.068053      4.000000
  0.105528  0.175014  0.079396      4.000000
  0.126633  0.197640  0.090738      4.000000
 -0.126633 -0.073874 -0.045369      4.000000
 -0.105528 -0.051247 -0.034027      4.000000
 -0.084422 -0.028621 -0.022684      4.000000
 -0.063317 -0.005995 -0.011342      4.000000
 -0.042211  0.016631  0.000000      2.000000
  0.063317  0.160704  0.068053      2.000000
  0.084422  0.183330  0.079396      4.000000
  0.105528  0.205956  0.090738      4.000000
  0.126633  0.228582  0.102080      4.000000
 -0.126633 -0.042932 -0.034027      4.000000
 -0.105528 -0.020306 -0.022684      4.000000
 -0.084422  0.002320 -0.011342      4.000000
 -0.063317  0.024947  0.000000      2.000000
  0.084422  0.214271  0.090738      2.000000
  0.105528  0.236898  0.102080      4.000000
  0.126633  0.259524  0.113422      4.000000
 -0.126633 -0.011990 -0.022684      4.000000
 -0.105528  0.010636 -0.011342      4.000000
 -0.084422  0.033262  0.000000      2.000000
  0.105528  0.267839  0.113422      2.000000
  0.126633  0.290465  0.124765      4.000000
 -0.126633  0.018951 -0.011342      4.000000
 -0.105528  0.041578  0.000000      2.000000
  0.126633  0.321407  0.136107      2.000000
 -0.126633  0.049893  0.000000      2.000000
  0.000000  0.000000  0.032767      2.000000
  0.021106  0.022626  0.044109      4.000000
  0.042211  0.045252  0.055451      4.000000
  0.063317  0.067878  0.066793      4.000000
  0.084422  0.090505  0.078136      4.000000
  0.105528  0.113131  0.089478      4.000000
  0.126633  0.135757  0.100820      4.000000
 -0.126633 -0.135757 -0.035287      4.000000
 -0.105528 -0.113131 -0.023944      4.000000
 -0.084422 -0.090505 -0.012602      4.000000
 -0.063317 -0.067878 -0.001260      4.000000
 -0.042211 -0.045252  0.010082      4.000000
 -0.021106 -0.022626  0.021424      4.000000
  0.021106  0.053568  0.055451      2.000000
  0.042211  0.076194  0.066793      4.000000
  0.063317  0.098820  0.078136      4.000000
  0.084422  0.121446  0.089478      4.000000
  0.105528  0.144072  0.100820      4.000000
  0.126633  0.166699  0.112162      4.000000
 -0.126633 -0.104815 -0.023944      4.000000
 -0.105528 -0.082189 -0.012602      4.000000
 -0.084422 -0.059563 -0.001260      4.000000
 -0.063317 -0.036937  0.010082      4.000000
 -0.042211 -0.014311  0.021424      4.000000
 -0.021106  0.008316  0.032767      4.000000
  0.042211  0.107136  0.078136      2.000000
  0.063317  0.129762  0.089478      4.000000
  0.084422  0.152388  0.100820      4.000000
  0.105528  0.175014  0.112162      4.000000
  0.126633  0.197640  0.123505      4.000000
 -0.126633 -0.073874 -0.012602      4.000000
 -0.105528 -0.051247 -0.001260      4.000000
 -0.084422 -0.028621  0.010082      4.000000
 -0.063317 -0.005995  0.021424      4.000000
 -0.042211  0.016631  0.032767      4.000000
 -0.021106  0.039257  0.044109      4.000000
  0.063317  0.160704  0.100820      2.000000
  0.084422  0.183330  0.112162      4.000000
  0.105528  0.205956  0.123505      4.000000
  0.126633  0.228582  0.134847      4.000000
 -0.126633 -0.042932 -0.001260      4.000000
 -0.105528 -0.020306  0.010082      4.000000
 -0.084422  0.002320  0.021424      4.000000
 -0.063317  0.024947  0.032767      4.000000
 -0.042211  0.047573  0.044109      4.000000
 -0.021106  0.070199  0.055451      4.000000
  0.084422  0.214271  0.123505      2.000000
  0.105528  0.236898  0.134847      4.000000
  0.126633  0.259524  0.146189      4.000000
 -0.126633 -0.011990  0.010082      4.000000
 -0.105528  0.010636  0.021424      4.000000
 -0.084422  0.033262  0.032767      4.000000
 -0.063317  0.055888  0.044109      4.000000
 -0.042211  0.078514  0.055451      4.000000
 -0.021106  0.101141  0.066793      4.000000
  0.105528  0.267839  0.146189      2.000000
  0.126633  0.290465  0.157531      4.000000
 -0.126633  0.018951  0.021424      4.000000
 -0.105528  0.041578  0.032767      4.000000
 -0.084422  0.064204  0.044109      4.000000
 -0.063317  0.086830  0.055451      4.000000
 -0.042211  0.109456  0.066793      4.000000
 -0.021106  0.132082  0.078136      4.000000
  0.126633  0.321407  0.168873      2.000000
 -0.126633  0.049893  0.032767      4.000000
 -0.105528  0.072519  0.044109      4.000000
 -0.084422  0.095145  0.055451      4.000000
 -0.063317  0.117772  0.066793      4.000000
 -0.042211  0.140398  0.078136      4.000000
 -0.021106  0.163024  0.089478      4.000000
 -0.126633 -0.321407 -0.103340      2.000000
 -0.105528 -0.298781 -0.091998      4.000000
 -0.084422 -0.276155 -0.080656      4.000000
 -0.063317 -0.253529 -0.069313      4.000000
 -0.042211 -0.230902 -0.057971      4.000000
 -0.021106 -0.208276 -0.046629      4.000000
 -0.105528 -0.267839 -0.080656      2.000000
 -0.084422 -0.245213 -0.069313      4.000000
 -0.063317 -0.222587 -0.057971      4.000000
 -0.042211 -0.199961 -0.046629      4.000000
 -0.021106 -0.177335 -0.035287      4.000000
 -0.084422 -0.214271 -0.057971      2.000000
 -0.063317 -0.191645 -0.046629      4.000000
 -0.042211 -0.169019 -0.035287      4.000000
 -0.021106 -0.146393 -0.023944      4.000000
 -0.063317 -0.160704 -0.035287      2.000000
 -0.042211 -0.138077 -0.023944      4.000000
 -0.021106 -0.115451 -0.012602      4.000000
 -0.042211 -0.107136 -0.012602      2.000000
 -0.021106 -0.084510 -0.001260      4.000000
 -0.021106 -0.053568  0.010082      2.000000
  0.000000  0.000000  0.065533      2.000000
  0.021106  0.022626  0.076876      4.000000
  0.042211  0.045252  0.088218      4.000000
  0.063317  0.067878  0.099560      4.000000
  0.084422  0.090505  0.110902      4.000000
  0.105528  0.113131  0.122244      4.000000
  0.126633  0.135757  0.133587      4.000000
 -0.126633 -0.135757 -0.002520      4.000000
 -0.105528 -0.113131  0.008822      4.000000
 -0.084422 -0.090505  0.020164      4.000000
 -0.063317 -0.067878  0.031507      4.000000
 -0.042211 -0.045252  0.042849      4.000000
 -0.021106 -0.022626  0.054191      4.000000
  0.021106  0.053568  0.088218      2.000000
  0.042211  0.076194  0.099560      4.000000
  0.063317  0.098820  0.110902      4.000000
  0.084422  0.121446  0.122244      4.000000
  0.105528  0.144072  0.133587      4.000000
  0.126633  0.166699  0.144929      4.000000
 -0.126633 -0.104815  0.008822      4.000000
 -0.105528 -0.082189  0.020164      4.000000
 -0.084422 -0.059563  0.031507      4.000000
 -0.063317 -0.036937  0.042849      4.000000
 -0.042211 -0.014311  0.054191      4.000000
 -0.021106  0.008316  0.065533      4.000000
  0.042211  0.107136  0.110902      2.000000
  0.063317  0.129762  0.122244      4.000000
  0.084422  0.152388  0.133587      4.000000
  0.105528  0.175014  0.144929      4.000000
  0.126633  0.197640  0.156271      4.000000
 -0.126633 -0.073874  0.020164      4.000000
 -0.105528 -0.051247  0.031507      4.000000
 -0.084422 -0.028621  0.042849      4.000000
 -0.063317 -0.005995  0.054191      4.000000
 -0.042211  0.016631  0.065533      4.000000
 -0.021106  0.039257  0.076876      4.000000
  0.063317  0.160704  0.133587      2.000000
  0.084422  0.183330  0.144929      4.000000
  0.105528  0.205956  0.156271      4.000000
  0.126633  0.228582  0.167613      4.000000
 -0.126633 -0.042932  0.031507      4.000000
 -0.105528 -0.020306  0.042849      4.000000
 -0.084422  0.002320  0.054191      4.000000
 -0.063317  0.024947  0.065533      4.000000
 -0.042211  0.047573  0.076876      4.000000
 -0.021106  0.070199  0.088218      4.000000
  0.084422  0.214271  0.156271      2.000000
  0.105528  0.236898  0.167613      4.000000
  0.126633  0.259524  0.178956      4.000000
 -0.126633 -0.011990  0.042849      4.000000
 -0.105528  0.010636  0.054191      4.000000
 -0.084422  0.033262  0.065533      4.000000
 -0.063317  0.055888  0.076876      4.000000
 -0.042211  0.078514  0.088218      4.000000
 -0.021106  0.101141  0.099560      4.000000
  0.105528  0.267839  0.178956      2.000000
  0.126633  0.290465  0.190298      4.000000
 -0.126633  0.018951  0.054191      4.000000
 -0.105528  0.041578  0.065533      4.000000
 -0.084422  0.064204  0.076876      4.000000
 -0.063317  0.086830  0.088218      4.000000
 -0.042211  0.109456  0.099560      4.000000
 -0.021106  0.132082  0.110902      4.000000
  0.126633  0.321407  0.201640      2.000000
 -0.126633  0.049893  0.065533      4.000000
 -0.105528  0.072519  0.076876      4.000000
 -0.084422  0.095145  0.088218      4.000000
 -0.063317  0.117772  0.099560      4.000000
 -0.042211  0.140398  0.110902      4.000000
 -0.021106  0.163024  0.122244      4.000000
 -0.126633 -0.321407 -0.070573      2.000000
 -0.105528 -0.298781 -0.059231      4.000000
 -0.084422 -0.276155 -0.047889      4.000000
 -0.063317 -0.253529 -0.036547      4.000000
 -0.042211 -0.230902 -0.025205      4.000000
 -0.021106 -0.208276 -0.013862      4.000000
 -0.105528 -0.267839 -0.047889      2.000000
 -0.084422 -0.245213 -0.036547      4.000000
 -0.063317 -0.222587 -0.025205      4.000000
 -0.042211 -0.199961 -0.013862      4.000000
 -0.021106 -0.177335 -0.002520      4.000000
 -0.084422 -0.214271 -0.025205      2.000000
 -0.063317 -0.191645 -0.013862      4.000000
 -0.042211 -0.169019 -0.002520      4.000000
 -0.021106 -0.146393  0.008822      4.000000
 -0.063317 -0.160704 -0.002520      2.000000
 -0.042211 -0.138077  0.008822      4.000000
 -0.021106 -0.115451  0.020164      4.000000
 -0.042211 -0.107136  0.020164      2.000000
 -0.021106 -0.084510  0.031507      4.000000
 -0.021106 -0.053568  0.042849      2.000000
  0.000000  0.000000  0.098300      2.000000
  0.021106  0.022626  0.109642      4.000000
  0.042211  0.045252  0.120984      4.000000
  0.063317  0.067878  0.132327      4.000000
  0.084422  0.090505  0.143669      4.000000
  0.105528  0.113131  0.155011      4.000000
  0.126633  0.135757  0.166353      4.000000
 -0.126633 -0.135757  0.030247      4.000000
 -0.105528 -0.113131  0.041589      4.000000
 -0.084422 -0.090505  0.052931      4.000000
 -0.063317 -0.067878  0.064273      4.000000
 -0.042211 -0.045252  0.075616      4.000000
 -0.021106 -0.022626  0.086958      4.000000
  0.021106  0.053568  0.120984      2.000000
  0.042211  0.076194  0.132327      4.000000
  0.063317  0.098820  0.143669      4.000000
  0.084422  0.121446  0.155011      4.000000
  0.105528  0.144072  0.166353      4.000000
  0.126633  0.166699  0.177696      4.000000
 -0.126633 -0.104815  0.041589      4.000000
 -0.105528 -0.082189  0.052931      4.000000
 -0.084422 -0.059563  0.064273      4.000000
 -0.063317 -0.036937  0.075616      4.000000
 -0.042211 -0.014311  0.086958      4.000000
 -0.021106  0.008316  0.098300      4.000000
  0.042211  0.107136  0.143669      2.000000
  0.063317  0.129762  0.155011      4.000000
  0.084422  0.152388  0.166353      4.000000
  0.105528  0.175014  0.177696      4.000000
  0.126633  0.197640  0.189038      4.000000
 -0.126633 -0.073874  0.052931      4.000000
 -0.105528 -0.051247  0.064273      4.000000
 -0.084422 -0.028621  0.075616      4.000000
 -0.063317 -0.005995  0.086958      4.000000
 -0.042211  0.016631  0.098300      4.000000
 -0.021106  0.039257  0.109642      4.000000
  0.063317  0.160704  0.166353      2.000000
  0.084422  0.183330  0.177696      4.000000
  0.105528  0.205956  0.189038      4.000000
  0.126633  0.228582  0.200380      4.000000
 -0.126633 -0.042932  0.064273      4.000000
 -0.105528 -0.020306  0.075616      4.000000
 -0.084422  0.002320  0.086958      4.000000
 -0.063317  0.024947  0.098300      4.000000
 -0.042211  0.047573  0.109642      4.000000
 -0.021106  0.070199  0.120984      4.000000
  0.084422  0.214271  0.189038      2.000000
  0.105528  0.236898  0.200380      4.000000
  0.126633  0.259524  0.211722      4.000000
 -0.126633 -0.011990  0.075616      4.000000
 -0.105528  0.010636  0.086958      4.000000
 -0.084422  0.033262  0.098300      4.000000
 -0.063317  0.055888  0.109642      4.000000
 -0.042211  0.078514  0.120984      4.000000
 -0.021106  0.101141  0.132327      4.000000
  0.105528  0.267839  0.211722      2.000000
  0.126633  0.290465  0.223065      4.000000
 -0.126633  0.018951  0.086958      4.000000
 -0.105528  0.041578  0.098300      4.000000
 -0.084422  0.064204  0.109642      4.000000
 -0.063317  0.086830  0.120984      4.000000
 -0.042211  0.109456  0.132327      4.000000
 -0.021106  0.132082  0.143669      4.000000
  0.126633  0.321407  0.234407      2.000000
 -0.126633  0.049893  0.098300      4.000000
 -0.105528  0.072519  0.109642      4.000000
 -0.084422  0.095145  0.120984      4.000000
 -0.063317  0.117772  0.132327      4.000000
 -0.042211  0.140398  0.143669      4.000000
 -0.021106  0.163024  0.155011      4.000000
 -0.126633 -0.321407 -0.037807      2.000000
 -0.105528 -0.298781 -0.026465      4.000000
 -0.084422 -0.276155 -0.015122      4.000000
 -0.063317 -0.253529 -0.003780      4.000000
 -0.042211 -0.230902  0.007562      4.000000
 -0.021106 -0.208276  0.018904      4.000000
 -0.105528 -0.267839 -0.015122      2.000000
 -0.084422 -0.245213 -0.003780      4.000000
 -0.063317 -0.222587  0.007562      4.000000
 -0.042211 -0.199961  0.018904      4.000000
 -0.021106 -0.177335  0.030247      4.000000
 -0.084422 -0.214271  0.007562      2.000000
 -0.063317 -0.191645  0.018904      4.000000
 -0.042211 -0.169019  0.030247      4.000000
 -0.021106 -0.146393  0.041589      4.000000
 -0.063317 -0.160704  0.030247      2.000000
 -0.042211 -0.138077  0.041589      4.000000
 -0.021106 -0.115451  0.052931      4.000000
 -0.042211 -0.107136  0.052931      2.000000
 -0.021106 -0.084510  0.064273      4.000000
 -0.021106 -0.053568  0.075616      2.000000
  0.000000  0.000000  0.131067      2.000000
  0.021106  0.022626  0.142409      4.000000
  0.042211  0.045252  0.153751      4.000000
  0.063317  0.067878  0.165093      4.000000
  0.084422  0.090505  0.176436      4.000000
  0.105528  0.113131  0.187778      4.000000
  0.126633  0.135757  0.199120      4.000000
 -0.126633 -0.135757  0.063013      4.000000
 -0.105528 -0.113131  0.074356      4.000000
 -0.084422 -0.090505  0.085698      4.000000
 -0.063317 -0.067878  0.097040      4.000000
 -0.042211 -0.045252  0.108382      4.000000
 -0.021106 -0.022626  0.119724      4.000000
  0.021106  0.053568  0.153751      2.000000
  0.042211  0.076194  0.165093      4.000000
  0.063317  0.098820  0.176436      4.000000
  0.084422  0.121446  0.187778      4.000000
  0.105528  0.144072  0.199120      4.000000
  0.126633  0.166699  0.210462      4.000000
 -0.126633 -0.104815  0.074356      4.000000
 -0.105528 -0.082189  0.085698      4.000000
 -0.084422 -0.059563  0.097040      4.000000
 -0.063317 -0.036937  0.108382      4.000000
 -0.042211 -0.014311  0.119724      4.000000
 -0.021106  0.008316  0.131067      4.000000
  0.042211  0.107136  0.176436      2.000000
  0.063317  0.129762  0.187778      4.000000
  0.084422  0.152388  0.199120      4.000000
  0.105528  0.175014  0.210462      4.000000
  0.126633  0.197640  0.221805      4.000000
 -0.126633 -0.073874  0.085698      4.000000
 -0.105528 -0.051247  0.097040      4.000000
 -0.084422 -0.028621  0.108382      4.000000
 -0.063317 -0.005995  0.119724      4.000000
 -0.042211  0.016631  0.131067      4.000000
 -0.021106  0.039257  0.142409      4.000000
  0.063317  0.160704  0.199120      2.000000
  0.084422  0.183330  0.210462      4.000000
  0.105528  0.205956  0.221805      4.000000
  0.126633  0.228582  0.233147      4.000000
 -0.126633 -0.042932  0.097040      4.000000
 -0.105528 -0.020306  0.108382      4.000000
 -0.084422  0.002320  0.119724      4.000000
 -0.063317  0.024947  0.131067      4.000000
 -0.042211  0.047573  0.142409      4.000000
 -0.021106  0.070199  0.153751      4.000000
  0.084422  0.214271  0.221805      2.000000
  0.105528  0.236898  0.233147      4.000000
  0.126633  0.259524  0.244489      4.000000
 -0.126633 -0.011990  0.108382      4.000000
 -0.105528  0.010636  0.119724      4.000000
 -0.084422  0.033262  0.131067      4.000000
 -0.063317  0.055888  0.142409      4.000000
 -0.042211  0.078514  0.153751      4.000000
 -0.021106  0.101141  0.165093      4.000000
  0.105528  0.267839  0.244489      2.000000
  0.126633  0.290465  0.255831      4.000000
 -0.126633  0.018951  0.119724      4.000000
 -0.105528  0.041578  0.131067      4.000000
 -0.084422  0.064204  0.142409      4.000000
 -0.063317  0.086830  0.153751      4.000000
 -0.042211  0.109456  0.165093      4.000000
 -0.021106  0.132082  0.176436      4.000000
  0.126633  0.321407  0.267173      2.000000
 -0.126633  0.049893  0.131067      4.000000
 -0.105528  0.072519  0.142409      4.000000
 -0.084422  0.095145  0.153751      4.000000
 -0.063317  0.117772  0.165093      4.000000
 -0.042211  0.140398  0.176436      4.000000
 -0.021106  0.163024  0.187778      4.000000
 -0.126633 -0.321407 -0.005040      2.000000
 -0.105528 -0.298781  0.006302      4.000000
 -0.084422 -0.276155  0.017644      4.000000
 -0.063317 -0.253529  0.028987      4.000000
 -0.042211 -0.230902  0.040329      4.000000
 -0.021106 -0.208276  0.051671      4.000000
 -0.105528 -0.267839  0.017644      2.000000
 -0.084422 -0.245213  0.028987      4.000000
 -0.063317 -0.222587  0.040329      4.000000
 -0.042211 -0.199961  0.051671      4.000000
 -0.021106 -0.177335  0.063013      4.000000
 -0.084422 -0.214271  0.040329      2.000000
 -0.063317 -0.191645  0.051671      4.000000
 -0.042211 -0.169019  0.063013      4.000000
 -0.021106 -0.146393  0.074356      4.000000
 -0.063317 -0.160704  0.063013      2.000000
 -0.042211 -0.138077  0.074356      4.000000
 -0.021106 -0.115451  0.085698      4.000000
 -0.042211 -0.107136  0.085698      2.000000
 -0.021106 -0.084510  0.097040      4.000000
 -0.021106 -0.053568  0.108382      2.000000
 


--------------------------------------------------------------------------------------------------------




 Dimension of arrays:
   k-points           NKPTS =    413   k-points in BZ     NKDIM =    413   number of bands    NBANDS=      8
   number of dos      NEDOS =    301   number of ions     NIONS =      2
   non local maximal  LDIM  =      4   non local SUM 2l+1 LMDIM =      8
   total plane-waves  NPLWV =   5832
   max r-space proj   IRMAX =      1   max aug-charges    IRDMAX=   6540
   dimension x,y,z NGX =    18 NGY =   18 NGZ =   18
   dimension x,y,z NGXF=    36 NGYF=   36 NGZF=   36
   support grid    NGXF=    36 NGYF=   36 NGZF=   36
   ions per type =               2
   NGX,Y,Z   is equivalent  to a cutoff of   8.21,  8.21,  8.21 a.u.
   NGXF,Y,Z  is equivalent  to a cutoff of  16.42, 16.42, 16.42 a.u.

 SYSTEM =  POSCAR-si-sym141                        
 POSCAR =  SYSTEM                                  

 Startparameter for this run:
   NWRITE =      2    write-flag & timer
   PREC   = normal    normal or accurate (medium, high low for compatibility)
   ISTART =      1    job   : 0-new  1-cont  2-samecut
   ICHARG =      0    charge: 1-file 2-atom 10-const
   ISPIN  =      1    spin polarized calculation?
   LNONCOLLINEAR =      F non collinear calculations
   LSORBIT =      F    spin-orbit coupling
   INIWAV =      1    electr: 0-lowe 1-rand  2-diag
   LASPH  =      F    aspherical Exc in radial PAW
 Electronic Relaxation 1
   ENCUT  =  400.0 eV  29.40 Ry    5.42 a.u.   5.95  5.95  5.95*2*pi/ulx,y,z
   ENINI  =  400.0     initial cutoff
   ENAUG  =  322.1 eV  augmentation charge cutoff
   NELM   =     60;   NELMIN=  2; NELMDL=  0     # of ELM steps 
   EDIFF  = 0.1E-03   stopping-criterion for ELM
   LREAL  =      F    real-space projection
   NLSPLINE    = F    spline interpolate recip. space projectors
   LCOMPAT=      F    compatible to vasp.4.4
   GGA_COMPAT  = T    GGA compatible to vasp.4.4-vasp.4.6
   LMAXPAW     = -100 max onsite density
   LMAXMIX     =    2 max onsite mixed and CHGCAR
   VOSKOWN=      0    Vosko Wilk Nusair interpolation
   ROPT   =    0.00000
 Ionic relaxation
   EDIFFG = 0.1E-02   stopping-criterion for IOM
   NSW    =      0    number of steps for IOM
   NBLOCK =      1;   KBLOCK =      1    inner block; outer block 
   IBRION =     -1    ionic relax: 0-MD 1-quasi-New 2-CG
   NFREE  =      0    steps in history (QN), initial steepest desc. (CG)
   ISIF   =      2    stress and relaxation
   IWAVPR =     10    prediction:  0-non 1-charg 2-wave 3-comb
   ISYM   =      2    0-nonsym 1-usesym 2-fastsym
   LCORR  =      T    Harris-Foulkes like correction to forces

   POTIM  = 0.5000    time-step for ionic-motion
   TEIN   =    0.0    initial temperature
   TEBEG  =    0.0;   TEEND  =   0.0 temperature during run
   SMASS  =  -3.00    Nose mass-parameter (am)
   estimated Nose-frequenzy (Omega)   =  0.10E-29 period in steps = 0.13E+47 mass=  -0.304E-27a.u.
   SCALEE = 1.0000    scale energy and forces
   NPACO  =    256;   APACO  = 10.0  distance and # of slots for P.C.
   PSTRESS=    0.0 pullay stress

  Mass of Ions in am
   POMASS =  28.09
  Ionic Valenz
   ZVAL   =   4.00
  Atomic Wigner-Seitz radii
   RWIGS  =  -1.00
  virtual crystal weights 
   VCA    =   1.00
   NELECT =       8.0000    total number of electrons
   NUPDOWN=      -1.0000    fix difference up-down

 DOS related values:
   EMIN   =  10.00;   EMAX   =-10.00  energy-range for DOS
   EFERMI =   0.00;   METHOD = LEGACY      
   ISMEAR =    -5;   SIGMA  =   0.20  broadening in eV -4-tet -1-fermi 0-gaus

 Electronic relaxation 2 (details)
   IALGO  =     38    algorithm
   LDIAG  =      T    sub-space diagonalisation (order eigenvalues)
   LSUBROT=      F    optimize rotation matrix (better conditioning)
   TURBO    =      0    0=normal 1=particle mesh
   IRESTART =      0    0=no restart 2=restart with 2 vectors
   NREBOOT  =      0    no. of reboots
   NMIN     =      0    reboot dimension
   EREF     =   0.00    reference energy to select bands
   IMIX   =      4    mixing-type and parameters
     AMIX     =   0.40;   BMIX     =  1.00
     AMIX_MAG =   1.60;   BMIX_MAG =  1.00
     AMIN     =   0.10
     WC   =   100.;   INIMIX=   1;  MIXPRE=   1;  MAXMIX= -45

 Intra band minimization:
   WEIMIN = 0.0000     energy-eigenvalue tresh-hold
   EBREAK =  0.31E-05  absolut break condition
   DEPER  =   0.30     relativ break condition  

   TIME   =   0.40     timestep for ELM

  volume/ion in A,a.u.               =      15.38       103.76
  Fermi-wavevector in a.u.,A,eV,Ry     =   1.045082  1.974918 14.860232  1.092196
  Thomas-Fermi vector in A             =   2.179862

 Write flags
   LWAVE        =      T    write WAVECAR
   LDOWNSAMPLE  =      F    k-point downsampling of WAVECAR
   LCHARG       =      T    write CHGCAR
   LVTOT        =      F    write LOCPOT, total local potential
   LVHAR        =      F    write LOCPOT, Hartree potential only
   LELF         =      F    write electronic localiz. function (ELF)
   LORBIT       =     11    0 simple, 1 ext, 2 COOP (PROOUT), +10 PAW based schemes


 Dipole corrections
   LMONO  =      F    monopole corrections only (constant potential shift)
   LDIPOL =      F    correct potential (dipole corrections)
   IDIPOL =      0    1-x, 2-y, 3-z, 4-all directions 
   EPSILON=  1.0000000 bulk dielectric constant

 Exchange correlation treatment:
   GGA     =    --    GGA type
   LEXCH   =     8    internal setting for exchange type
   LIBXC   =     F    Libxc                    
   VOSKOWN =     0    Vosko Wilk Nusair interpolation
   LHFCALC =     F    Hartree Fock is set to
   LHFONE  =     F    Hartree Fock one center treatment
   AEXX    =    0.0000 exact exchange contribution

 Linear response parameters
   LEPSILON=     F    determine dielectric tensor
   LRPA    =     F    only Hartree local field effects (RPA)
   LNABLA  =     F    use nabla operator in PAW spheres
   LVEL    =     F    velocity operator in full k-point grid
   CSHIFT  =0.1000    complex shift for real part using Kramers Kronig
   OMEGAMAX=  -1.0    maximum frequency
   DEG_THRESHOLD= 0.2000000E-02 threshold for treating states as degnerate
   RTIME   =   -0.100 relaxation time in fs
  (WPLASMAI=    0.000 imaginary part of plasma frequency in eV, 0.658/RTIME)
   DFIELD  = 0.0000000 0.0000000 0.0000000 field for delta impulse in time

  Optional k-point grid parameters
   LKPOINTS_OPT  =     F    use optional k-point grid
   KPOINTS_OPT_MODE=     1    mode for optional k-point grid

 Orbital magnetization related:
   ORBITALMAG=     F  switch on orbital magnetization
   LCHIMAG   =     F  perturbation theory with respect to B field
   DQ        =  0.001000  dq finite difference perturbation B field
   LLRAUG    =     F  two centre corrections for induced B field
   LBONE     =     F  B-component reconstruction in AE one-centre
   LVGVCALC  =     T  calculate vGv susceptibility
   LVGVAPPL  =     F  apply vGv susceptibility instead of pGv for G=0

 Random number generation:
   RANDOM_GENERATOR = DEFAULT
   PCG_SEED         = not used


--------------------------------------------------------------------------------------------------------


 Static calculation
 charge density and potential will be updated during run
 non-spin polarized calculation
 Variant of blocked Davidson
 Davidson routine will perform the subspace rotation
 perform sub-space diagonalisation
    after iterative eigenvector-optimisation
 modified Broyden-mixing scheme, WC =      100.0
 initial mixing is a Kerker type mixing with AMIX =  0.4000 and BMIX =      1.0000
 Hartree-type preconditioning will be used
 using additional bands            4
 reciprocal scheme for non local part
 use partial core corrections
 calculate Harris-corrections to forces   (improved forces if not selfconsistent)
 use gradient corrections 
 use of overlap-Matrix (Vanderbilt PP)
 Fermi weights with tetrahedron method with Bloechl corrections


--------------------------------------------------------------------------------------------------------


  energy-cutoff  :      400.00
  volume of cell :       30.75
      direct lattice vectors                 reciprocal lattice vectors
     3.645705931  0.000000000  0.000000000     0.274295299  0.294057435  0.147407605
    -2.665928315  2.486764555  0.000000000    -0.000000000  0.402128942  0.147407605
    -0.489885495 -1.243373869  3.391932310     0.000000000 -0.000000000  0.294817204

  length of vectors
     3.645705931  3.645705931  3.645705853     0.428295095  0.428295095  0.294817204



 old parameters found on file WAVECAR:
  energy-cutoff  :      400.00
  volume of cell :       30.73
      direct lattice vectors                 reciprocal lattice vectors
     3.644682123  0.000000000  0.000000000     0.274372350  0.294140037  0.147449013
    -2.665179653  2.486066208  0.000000000    -0.000000000  0.402241902  0.147449013
    -0.489747922 -1.243024697  3.390979767     0.000000000 -0.000000000  0.294900020

  length of vectors


 k-points in units of 2pi/SCALE and weight: read from INCAR                         
   0.00000000  0.00000000  0.00000000       0.001
   0.02110557  0.02262616  0.01134223       0.003
   0.04221113  0.04525231  0.02268446       0.003
   0.06331670  0.06787847  0.03402670       0.003
   0.08442226  0.09050463  0.04536893       0.003
   0.10552783  0.11313078  0.05671116       0.003
   0.12663339  0.13575694  0.06805339       0.003
   0.02110557  0.05356784  0.02268446       0.001
   0.04221113  0.07619400  0.03402670       0.003
   0.06331670  0.09882015  0.04536893       0.003
   0.08442226  0.12144631  0.05671116       0.003
   0.10552783  0.14407247  0.06805339       0.003
   0.12663339  0.16669862  0.07939562       0.003
  -0.12663339 -0.10481526 -0.05671116       0.003
  -0.10552783 -0.08218910 -0.04536893       0.003
  -0.08442226 -0.05956294 -0.03402670       0.003
  -0.06331670 -0.03693679 -0.02268446       0.003
  -0.04221113 -0.01431063 -0.01134223       0.003
  -0.02110557  0.00831553  0.00000000       0.001
   0.04221113  0.10713568  0.04536893       0.001
   0.06331670  0.12976184  0.05671116       0.003
   0.08442226  0.15238800  0.06805339       0.003
   0.10552783  0.17501415  0.07939562       0.003
   0.12663339  0.19764031  0.09073785       0.003
  -0.12663339 -0.07387357 -0.04536893       0.003
  -0.10552783 -0.05124741 -0.03402670       0.003
  -0.08442226 -0.02862126 -0.02268446       0.003
  -0.06331670 -0.00599510 -0.01134223       0.003
  -0.04221113  0.01663106  0.00000000       0.001
   0.06331670  0.16070352  0.06805339       0.001
   0.08442226  0.18332968  0.07939562       0.003
   0.10552783  0.20595584  0.09073785       0.003
   0.12663339  0.22858199  0.10208009       0.003
  -0.12663339 -0.04293189 -0.03402670       0.003
  -0.10552783 -0.02030573 -0.02268446       0.003
  -0.08442226  0.00232043 -0.01134223       0.003
  -0.06331670  0.02494658  0.00000000       0.001
   0.08442226  0.21427137  0.09073785       0.001
   0.10552783  0.23689752  0.10208009       0.003
   0.12663339  0.25952368  0.11342232       0.003
  -0.12663339 -0.01199020 -0.02268446       0.003
  -0.10552783  0.01063596 -0.01134223       0.003
  -0.08442226  0.03326211  0.00000000       0.001
   0.10552783  0.26783921  0.11342232       0.001
   0.12663339  0.29046536  0.12476455       0.003
  -0.12663339  0.01895148 -0.01134223       0.003
  -0.10552783  0.04157764  0.00000000       0.001
   0.12663339  0.32140705  0.13610678       0.001
  -0.12663339  0.04989317  0.00000000       0.001
   0.00000000  0.00000000  0.03276667       0.001
   0.02110557  0.02262616  0.04410890       0.003
   0.04221113  0.04525231  0.05545113       0.003
   0.06331670  0.06787847  0.06679336       0.003
   0.08442226  0.09050463  0.07813560       0.003
   0.10552783  0.11313078  0.08947783       0.003
   0.12663339  0.13575694  0.10082006       0.003
  -0.12663339 -0.13575694 -0.03528672       0.003
  -0.10552783 -0.11313078 -0.02394449       0.003
  -0.08442226 -0.09050463 -0.01260226       0.003
  -0.06331670 -0.06787847 -0.00126003       0.003
  -0.04221113 -0.04525231  0.01008221       0.003
  -0.02110557 -0.02262616  0.02142444       0.003
   0.02110557  0.05356784  0.05545113       0.001
   0.04221113  0.07619400  0.06679336       0.003
   0.06331670  0.09882015  0.07813560       0.003
   0.08442226  0.12144631  0.08947783       0.003
   0.10552783  0.14407247  0.10082006       0.003
   0.12663339  0.16669862  0.11216229       0.003
  -0.12663339 -0.10481526 -0.02394449       0.003
  -0.10552783 -0.08218910 -0.01260226       0.003
  -0.08442226 -0.05956294 -0.00126003       0.003
  -0.06331670 -0.03693679  0.01008221       0.003
  -0.04221113 -0.01431063  0.02142444       0.003
  -0.02110557  0.00831553  0.03276667       0.003
   0.04221113  0.10713568  0.07813560       0.001
   0.06331670  0.12976184  0.08947783       0.003
   0.08442226  0.15238800  0.10082006       0.003
   0.10552783  0.17501415  0.11216229       0.003
   0.12663339  0.19764031  0.12350452       0.003
  -0.12663339 -0.07387357 -0.01260226       0.003
  -0.10552783 -0.05124741 -0.00126003       0.003
  -0.08442226 -0.02862126  0.01008221       0.003
  -0.06331670 -0.00599510  0.02142444       0.003
  -0.04221113  0.01663106  0.03276667       0.003
  -0.02110557  0.03925721  0.04410890       0.003
   0.06331670  0.16070352  0.10082006       0.001
   0.08442226  0.18332968  0.11216229       0.003
   0.10552783  0.20595584  0.12350452       0.003
   0.12663339  0.22858199  0.13484675       0.003
  -0.12663339 -0.04293189 -0.00126003       0.003
  -0.10552783 -0.02030573  0.01008221       0.003
  -0.08442226  0.00232043  0.02142444       0.003
  -0.06331670  0.02494658  0.03276667       0.003
  -0.04221113  0.04757274  0.04410890       0.003
  -0.02110557  0.07019890  0.05545113       0.003
   0.08442226  0.21427137  0.12350452       0.001
   0.10552783  0.23689752  0.13484675       0.003
   0.12663339  0.25952368  0.14618899       0.003
  -0.12663339 -0.01199020  0.01008221       0.003
  -0.10552783  0.01063596  0.02142444       0.003
  -0.08442226  0.03326211  0.03276667       0.003
  -0.06331670  0.05588827  0.04410890       0.003
  -0.04221113  0.07851443  0.05545113       0.003
  -0.02110557  0.10114058  0.06679336       0.003
   0.10552783  0.26783921  0.14618899       0.001
   0.12663339  0.29046536  0.15753122       0.003
  -0.12663339  0.01895148  0.02142444       0.003
  -0.10552783  0.04157764  0.03276667       0.003
  -0.08442226  0.06420380  0.04410890       0.003
  -0.06331670  0.08682995  0.05545113       0.003
  -0.04221113  0.10945611  0.06679336       0.003
  -0.02110557  0.13208227  0.07813560       0.003
   0.12663339  0.32140705  0.16887345       0.001
  -0.12663339  0.04989317  0.03276667       0.003
  -0.10552783  0.07251933  0.04410890       0.003
  -0.08442226  0.09514548  0.05545113       0.003
  -0.06331670  0.11777164  0.06679336       0.003
  -0.04221113  0.14039780  0.07813560       0.003
  -0.02110557  0.16302395  0.08947783       0.003
  -0.12663339 -0.32140705 -0.10334011       0.001
  -0.10552783 -0.29878089 -0.09199788       0.003
  -0.08442226 -0.27615474 -0.08065565       0.003
  -0.06331670 -0.25352858 -0.06931342       0.003
  -0.04221113 -0.23090242 -0.05797119       0.003
  -0.02110557 -0.20827627 -0.04662895       0.003
  -0.10552783 -0.26783921 -0.08065565       0.001
  -0.08442226 -0.24521305 -0.06931342       0.003
  -0.06331670 -0.22258689 -0.05797119       0.003
  -0.04221113 -0.19996074 -0.04662895       0.003
  -0.02110557 -0.17733458 -0.03528672       0.003
  -0.08442226 -0.21427137 -0.05797119       0.001
  -0.06331670 -0.19164521 -0.04662895       0.003
  -0.04221113 -0.16901905 -0.03528672       0.003
  -0.02110557 -0.14639290 -0.02394449       0.003
  -0.06331670 -0.16070352 -0.03528672       0.001
  -0.04221113 -0.13807737 -0.02394449       0.003
  -0.02110557 -0.11545121 -0.01260226       0.003
  -0.04221113 -0.10713568 -0.01260226       0.001
  -0.02110557 -0.08450953 -0.00126003       0.003
  -0.02110557 -0.05356784  0.01008221       0.001
   0.00000000  0.00000000  0.06553334       0.001
   0.02110557  0.02262616  0.07687557       0.003
   0.04221113  0.04525231  0.08821780       0.003
   0.06331670  0.06787847  0.09956003       0.003
   0.08442226  0.09050463  0.11090226       0.003
   0.10552783  0.11313078  0.12224450       0.003
   0.12663339  0.13575694  0.13358673       0.003
  -0.12663339 -0.13575694 -0.00252005       0.003
  -0.10552783 -0.11313078  0.00882218       0.003
  -0.08442226 -0.09050463  0.02016441       0.003
  -0.06331670 -0.06787847  0.03150664       0.003
  -0.04221113 -0.04525231  0.04284887       0.003
  -0.02110557 -0.02262616  0.05419111       0.003
   0.02110557  0.05356784  0.08821780       0.001
   0.04221113  0.07619400  0.09956003       0.003
   0.06331670  0.09882015  0.11090226       0.003
   0.08442226  0.12144631  0.12224450       0.003
   0.10552783  0.14407247  0.13358673       0.003
   0.12663339  0.16669862  0.14492896       0.003
  -0.12663339 -0.10481526  0.00882218       0.003
  -0.10552783 -0.08218910  0.02016441       0.003
  -0.08442226 -0.05956294  0.03150664       0.003
  -0.06331670 -0.03693679  0.04284887       0.003
  -0.04221113 -0.01431063  0.05419111       0.003
  -0.02110557  0.00831553  0.06553334       0.003
   0.04221113  0.10713568  0.11090226       0.001
   0.06331670  0.12976184  0.12224450       0.003
   0.08442226  0.15238800  0.13358673       0.003
   0.10552783  0.17501415  0.14492896       0.003
   0.12663339  0.19764031  0.15627119       0.003
  -0.12663339 -0.07387357  0.02016441       0.003
  -0.10552783 -0.05124741  0.03150664       0.003
  -0.08442226 -0.02862126  0.04284887       0.003
  -0.06331670 -0.00599510  0.05419111       0.003
  -0.04221113  0.01663106  0.06553334       0.003
  -0.02110557  0.03925721  0.07687557       0.003
   0.06331670  0.16070352  0.13358673       0.001
   0.08442226  0.18332968  0.14492896       0.003
   0.10552783  0.20595584  0.15627119       0.003
   0.12663339  0.22858199  0.16761342       0.003
  -0.12663339 -0.04293189  0.03150664       0.003
  -0.10552783 -0.02030573  0.04284887       0.003
  -0.08442226  0.00232043  0.05419111       0.003
  -0.06331670  0.02494658  0.06553334       0.003
  -0.04221113  0.04757274  0.07687557       0.003
  -0.02110557  0.07019890  0.08821780       0.003
   0.08442226  0.21427137  0.15627119       0.001
   0.10552783  0.23689752  0.16761342       0.003
   0.12663339  0.25952368  0.17895566       0.003
  -0.12663339 -0.01199020  0.04284887       0.003
  -0.10552783  0.01063596  0.05419111       0.003
  -0.08442226  0.03326211  0.06553334       0.003
  -0.06331670  0.05588827  0.07687557       0.003
  -0.04221113  0.07851443  0.08821780       0.003
  -0.02110557  0.10114058  0.09956003       0.003
   0.10552783  0.26783921  0.17895566       0.001
   0.12663339  0.29046536  0.19029789       0.003
  -0.12663339  0.01895148  0.05419111       0.003
  -0.10552783  0.04157764  0.06553334       0.003
  -0.08442226  0.06420380  0.07687557       0.003
  -0.06331670  0.08682995  0.08821780       0.003
  -0.04221113  0.10945611  0.09956003       0.003
  -0.02110557  0.13208227  0.11090226       0.003
   0.12663339  0.32140705  0.20164012       0.001
  -0.12663339  0.04989317  0.06553334       0.003
  -0.10552783  0.07251933  0.07687557       0.003
  -0.08442226  0.09514548  0.08821780       0.003
  -0.06331670  0.11777164  0.09956003       0.003
  -0.04221113  0.14039780  0.11090226       0.003
  -0.02110557  0.16302395  0.12224450       0.003
  -0.12663339 -0.32140705 -0.07057344       0.001
  -0.10552783 -0.29878089 -0.05923121       0.003
  -0.08442226 -0.27615474 -0.04788898       0.003
  -0.06331670 -0.25352858 -0.03654675       0.003
  -0.04221113 -0.23090242 -0.02520452       0.003
  -0.02110557 -0.20827627 -0.01386228       0.003
  -0.10552783 -0.26783921 -0.04788898       0.001
  -0.08442226 -0.24521305 -0.03654675       0.003
  -0.06331670 -0.22258689 -0.02520452       0.003
  -0.04221113 -0.19996074 -0.01386228       0.003
  -0.02110557 -0.17733458 -0.00252005       0.003
  -0.08442226 -0.21427137 -0.02520452       0.001
  -0.06331670 -0.19164521 -0.01386228       0.003
  -0.04221113 -0.16901905 -0.00252005       0.003
  -0.02110557 -0.14639290  0.00882218       0.003
  -0.06331670 -0.16070352 -0.00252005       0.001
  -0.04221113 -0.13807737  0.00882218       0.003
  -0.02110557 -0.11545121  0.02016441       0.003
  -0.04221113 -0.10713568  0.02016441       0.001
  -0.02110557 -0.08450953  0.03150664       0.003
  -0.02110557 -0.05356784  0.04284887       0.001
   0.00000000  0.00000000  0.09830001       0.001
   0.02110557  0.02262616  0.10964224       0.003
   0.04221113  0.04525231  0.12098447       0.003
   0.06331670  0.06787847  0.13232670       0.003
   0.08442226  0.09050463  0.14366893       0.003
   0.10552783  0.11313078  0.15501117       0.003
   0.12663339  0.13575694  0.16635340       0.003
  -0.12663339 -0.13575694  0.03024662       0.003
  -0.10552783 -0.11313078  0.04158885       0.003
  -0.08442226 -0.09050463  0.05293108       0.003
  -0.06331670 -0.06787847  0.06427331       0.003
  -0.04221113 -0.04525231  0.07561554       0.003
  -0.02110557 -0.02262616  0.08695777       0.003
   0.02110557  0.05356784  0.12098447       0.001
   0.04221113  0.07619400  0.13232670       0.003
   0.06331670  0.09882015  0.14366893       0.003
   0.08442226  0.12144631  0.15501117       0.003
   0.10552783  0.14407247  0.16635340       0.003
   0.12663339  0.16669862  0.17769563       0.003
  -0.12663339 -0.10481526  0.04158885       0.003
  -0.10552783 -0.08218910  0.05293108       0.003
  -0.08442226 -0.05956294  0.06427331       0.003
  -0.06331670 -0.03693679  0.07561554       0.003
  -0.04221113 -0.01431063  0.08695777       0.003
  -0.02110557  0.00831553  0.09830001       0.003
   0.04221113  0.10713568  0.14366893       0.001
   0.06331670  0.12976184  0.15501117       0.003
   0.08442226  0.15238800  0.16635340       0.003
   0.10552783  0.17501415  0.17769563       0.003
   0.12663339  0.19764031  0.18903786       0.003
  -0.12663339 -0.07387357  0.05293108       0.003
  -0.10552783 -0.05124741  0.06427331       0.003
  -0.08442226 -0.02862126  0.07561554       0.003
  -0.06331670 -0.00599510  0.08695777       0.003
  -0.04221113  0.01663106  0.09830001       0.003
  -0.02110557  0.03925721  0.10964224       0.003
   0.06331670  0.16070352  0.16635340       0.001
   0.08442226  0.18332968  0.17769563       0.003
   0.10552783  0.20595584  0.18903786       0.003
   0.12663339  0.22858199  0.20038009       0.003
  -0.12663339 -0.04293189  0.06427331       0.003
  -0.10552783 -0.02030573  0.07561554       0.003
  -0.08442226  0.00232043  0.08695777       0.003
  -0.06331670  0.02494658  0.09830001       0.003
  -0.04221113  0.04757274  0.10964224       0.003
  -0.02110557  0.07019890  0.12098447       0.003
   0.08442226  0.21427137  0.18903786       0.001
   0.10552783  0.23689752  0.20038009       0.003
   0.12663339  0.25952368  0.21172232       0.003
  -0.12663339 -0.01199020  0.07561554       0.003
  -0.10552783  0.01063596  0.08695777       0.003
  -0.08442226  0.03326211  0.09830001       0.003
  -0.06331670  0.05588827  0.10964224       0.003
  -0.04221113  0.07851443  0.12098447       0.003
  -0.02110557  0.10114058  0.13232670       0.003
   0.10552783  0.26783921  0.21172232       0.001
   0.12663339  0.29046536  0.22306456       0.003
  -0.12663339  0.01895148  0.08695777       0.003
  -0.10552783  0.04157764  0.09830001       0.003
  -0.08442226  0.06420380  0.10964224       0.003
  -0.06331670  0.08682995  0.12098447       0.003
  -0.04221113  0.10945611  0.13232670       0.003
  -0.02110557  0.13208227  0.14366893       0.003
   0.12663339  0.32140705  0.23440679       0.001
  -0.12663339  0.04989317  0.09830001       0.003
  -0.10552783  0.07251933  0.10964224       0.003
  -0.08442226  0.09514548  0.12098447       0.003
  -0.06331670  0.11777164  0.13232670       0.003
  -0.04221113  0.14039780  0.14366893       0.003
  -0.02110557  0.16302395  0.15501117       0.003
  -0.12663339 -0.32140705 -0.03780677       0.001
  -0.10552783 -0.29878089 -0.02646454       0.003
  -0.08442226 -0.27615474 -0.01512231       0.003
  -0.06331670 -0.25352858 -0.00378008       0.003
  -0.04221113 -0.23090242  0.00756215       0.003
  -0.02110557 -0.20827627  0.01890438       0.003
  -0.10552783 -0.26783921 -0.01512231       0.001
  -0.08442226 -0.24521305 -0.00378008       0.003
  -0.06331670 -0.22258689  0.00756215       0.003
  -0.04221113 -0.19996074  0.01890438       0.003
  -0.02110557 -0.17733458  0.03024662       0.003
  -0.08442226 -0.21427137  0.00756215       0.001
  -0.06331670 -0.19164521  0.01890438       0.003
  -0.04221113 -0.16901905  0.03024662       0.003
  -0.02110557 -0.14639290  0.04158885       0.003
  -0.06331670 -0.16070352  0.03024662       0.001
  -0.04221113 -0.13807737  0.04158885       0.003
  -0.02110557 -0.11545121  0.05293108       0.003
  -0.04221113 -0.10713568  0.05293108       0.001
  -0.02110557 -0.08450953  0.06427331       0.003
  -0.02110557 -0.05356784  0.07561554       0.001
   0.00000000  0.00000000  0.13106668       0.001
   0.02110557  0.02262616  0.14240891       0.003
   0.04221113  0.04525231  0.15375114       0.003
   0.06331670  0.06787847  0.16509337       0.003
   0.08442226  0.09050463  0.17643560       0.003
   0.10552783  0.11313078  0.18777783       0.003
   0.12663339  0.13575694  0.19912007       0.003
  -0.12663339 -0.13575694  0.06301328       0.003
  -0.10552783 -0.11313078  0.07435552       0.003
  -0.08442226 -0.09050463  0.08569775       0.003
  -0.06331670 -0.06787847  0.09703998       0.003
  -0.04221113 -0.04525231  0.10838221       0.003
  -0.02110557 -0.02262616  0.11972444       0.003
   0.02110557  0.05356784  0.15375114       0.001
   0.04221113  0.07619400  0.16509337       0.003
   0.06331670  0.09882015  0.17643560       0.003
   0.08442226  0.12144631  0.18777783       0.003
   0.10552783  0.14407247  0.19912007       0.003
   0.12663339  0.16669862  0.21046230       0.003
  -0.12663339 -0.10481526  0.07435552       0.003
  -0.10552783 -0.08218910  0.08569775       0.003
  -0.08442226 -0.05956294  0.09703998       0.003
  -0.06331670 -0.03693679  0.10838221       0.003
  -0.04221113 -0.01431063  0.11972444       0.003
  -0.02110557  0.00831553  0.13106668       0.003
   0.04221113  0.10713568  0.17643560       0.001
   0.06331670  0.12976184  0.18777783       0.003
   0.08442226  0.15238800  0.19912007       0.003
   0.10552783  0.17501415  0.21046230       0.003
   0.12663339  0.19764031  0.22180453       0.003
  -0.12663339 -0.07387357  0.08569775       0.003
  -0.10552783 -0.05124741  0.09703998       0.003
  -0.08442226 -0.02862126  0.10838221       0.003
  -0.06331670 -0.00599510  0.11972444       0.003
  -0.04221113  0.01663106  0.13106668       0.003
  -0.02110557  0.03925721  0.14240891       0.003
   0.06331670  0.16070352  0.19912007       0.001
   0.08442226  0.18332968  0.21046230       0.003
   0.10552783  0.20595584  0.22180453       0.003
   0.12663339  0.22858199  0.23314676       0.003
  -0.12663339 -0.04293189  0.09703998       0.003
  -0.10552783 -0.02030573  0.10838221       0.003
  -0.08442226  0.00232043  0.11972444       0.003
  -0.06331670  0.02494658  0.13106668       0.003
  -0.04221113  0.04757274  0.14240891       0.003
  -0.02110557  0.07019890  0.15375114       0.003
   0.08442226  0.21427137  0.22180453       0.001
   0.10552783  0.23689752  0.23314676       0.003
   0.12663339  0.25952368  0.24448899       0.003
  -0.12663339 -0.01199020  0.10838221       0.003
  -0.10552783  0.01063596  0.11972444       0.003
  -0.08442226  0.03326211  0.13106668       0.003
  -0.06331670  0.05588827  0.14240891       0.003
  -0.04221113  0.07851443  0.15375114       0.003
  -0.02110557  0.10114058  0.16509337       0.003
   0.10552783  0.26783921  0.24448899       0.001
   0.12663339  0.29046536  0.25583122       0.003
  -0.12663339  0.01895148  0.11972444       0.003
  -0.10552783  0.04157764  0.13106668       0.003
  -0.08442226  0.06420380  0.14240891       0.003
  -0.06331670  0.08682995  0.15375114       0.003
  -0.04221113  0.10945611  0.16509337       0.003
  -0.02110557  0.13208227  0.17643560       0.003
   0.12663339  0.32140705  0.26717346       0.001
  -0.12663339  0.04989317  0.13106668       0.003
  -0.10552783  0.07251933  0.14240891       0.003
  -0.08442226  0.09514548  0.15375114       0.003
  -0.06331670  0.11777164  0.16509337       0.003
  -0.04221113  0.14039780  0.17643560       0.003
  -0.02110557  0.16302395  0.18777783       0.003
  -0.12663339 -0.32140705 -0.00504011       0.001
  -0.10552783 -0.29878089  0.00630213       0.003
  -0.08442226 -0.27615474  0.01764436       0.003
  -0.06331670 -0.25352858  0.02898659       0.003
  -0.04221113 -0.23090242  0.04032882       0.003
  -0.02110557 -0.20827627  0.05167105       0.003
  -0.10552783 -0.26783921  0.01764436       0.001
  -0.08442226 -0.24521305  0.02898659       0.003
  -0.06331670 -0.22258689  0.04032882       0.003
  -0.04221113 -0.19996074  0.05167105       0.003
  -0.02110557 -0.17733458  0.06301328       0.003
  -0.08442226 -0.21427137  0.04032882       0.001
  -0.06331670 -0.19164521  0.05167105       0.003
  -0.04221113 -0.16901905  0.06301328       0.003
  -0.02110557 -0.14639290  0.07435552       0.003
  -0.06331670 -0.16070352  0.06301328       0.001
  -0.04221113 -0.13807737  0.07435552       0.003
  -0.02110557 -0.11545121  0.08569775       0.003
  -0.04221113 -0.10713568  0.08569775       0.001
  -0.02110557 -0.08450953  0.09703998       0.003
  -0.02110557 -0.05356784  0.10838221       0.001

 k-points in reciprocal lattice and weights: read from INCAR                         
   0.00000000  0.00000000  0.00000000       0.001
   0.07692308  0.00000000  0.00000000       0.003
   0.15384615  0.00000000  0.00000000       0.003
   0.23076923  0.00000000  0.00000000       0.003
   0.30769231  0.00000000  0.00000000       0.003
   0.38461538  0.00000000  0.00000000       0.003
[...]
      1      -0.2048      2.00000
      2       0.2932      2.00000
      3       4.6527      2.00000
      4       5.1339      2.00000
      5       9.9056      0.15831
      6      16.7566      0.00000
      7      18.3111      0.00000
      8      19.1447      0.00000

 k-point   384 :      -0.1538    0.3846    0.4444
  band No.  band energies     occupation 
      1      -0.3041      2.00000
      2       1.1017      2.00000
      3       5.3882      2.00000
      4       6.6679      2.00000
      5       7.9438      1.93019
      6      14.1407      0.00000
      7      17.2417      0.00000
      8      17.9932      0.00000

 k-point   385 :      -0.0769    0.3846    0.4444
  band No.  band energies     occupation 
      1      -0.1145      2.00000
      2       2.1880      2.00000
      3       5.7421      2.00000
      4       6.5959      2.00000
      5       8.6215      1.88396
      6      11.7659      0.00000
      7      15.3961      0.00000
      8      16.9249      0.00000

 k-point   386 :       0.4615    0.4615    0.4444
  band No.  band energies     occupation 
      1       0.4342      2.00000
      2       0.4492      2.00000
      3       3.1680      2.00000
      4       3.1746      2.00000
      5      12.0683      0.00000
      6      17.2705      0.00000
      7      20.5702      0.00000
      8      20.9343      0.00000

 k-point   387 :      -0.4615    0.4615    0.4444
  band No.  band energies     occupation 
      1       0.2732      2.00000
      2       0.8606      2.00000
      3       2.4305      2.00000
      4       3.0106      2.00000
      5      14.6365      0.00000
      6      14.6545      0.00000
      7      21.1372      0.00000
      8      21.6277      0.00000

 k-point   388 :      -0.3846    0.4615    0.4444
  band No.  band energies     occupation 
      1       0.4092      2.00000
      2       0.7318      2.00000
      3       2.8233      2.00000
      4       3.1410      2.00000
      5      12.0417      0.00000
      6      17.2679      0.00000
      7      20.7895      0.00000
      8      21.1097      0.00000

 k-point   389 :      -0.3077    0.4615    0.4444
  band No.  band energies     occupation 
      1       0.3901      2.00000
      2       0.8487      2.00000
      3       3.5597      2.00000
      4       4.0078      2.00000
      5       9.6432      0.33371
      6      17.8585      0.00000
      7      19.6721      0.00000
      8      19.9668      0.00000

 k-point   390 :      -0.2308    0.4615    0.4444
  band No.  band energies     occupation 
      1       0.2468      2.00000
      2       1.5820      2.00000
      3       4.2553      2.00000
      4       5.5277      2.00000
      5       7.5398      2.06934
      6      15.3509      0.00000
      7      17.5711      0.00000
      8      18.8548      0.00000

 k-point   391 :      -0.1538    0.4615    0.4444
  band No.  band energies     occupation 
      1       0.3723      2.00000
      2       2.5810      2.00000
      3       5.0802      2.00000
      4       5.6837      2.00000
      5       7.4791      2.10677
      6      12.8420      0.00000
      7      15.1769      0.00000
      8      18.0176      0.00000

 k-point   392 :      -0.0769    0.4615    0.4444
  band No.  band energies     occupation 
      1       0.7708      2.00000
      2       3.4132      2.00000
      3       4.4014      2.00000
      4       6.4668      2.00000
      5       8.9835      1.72764
      6      11.0470      0.00000
      7      12.9702      0.00000
      8      17.2263      0.00000

 k-point   393 :      -0.4615   -0.4615    0.4444
  band No.  band energies     occupation 
      1       0.9129      2.00000
      2       0.9341      2.00000
      3       2.4929      2.00000
      4       2.4933      2.00000
      5      11.9815      0.00000
      6      17.2542      0.00000
      7      21.3974      0.00000
      8      21.5356      0.00000

 k-point   394 :      -0.3846   -0.4615    0.4444
  band No.  band energies     occupation 
      1       1.0228      2.00000
      2       1.2913      2.00000
      3       2.8461      2.00000
      4       3.1077      2.00000
      5       9.5108      0.42756
      6      18.6119      0.00000
      7      19.9941      0.00000
      8      20.1835      0.00000

 k-point   395 :      -0.3077   -0.4615    0.4444
  band No.  band energies     occupation 
      1       0.9098      2.00000
      2       1.9490      2.00000
      3       3.4850      2.00000
      4       4.4949      2.00000
      5       7.3123      2.11523
      6      16.4434      0.00000
      7      17.6387      0.00000
      8      19.0006      0.00000

 k-point   396 :      -0.2308   -0.4615    0.4444
  band No.  band energies     occupation 
      1       0.9862      2.00000
      2       2.8519      2.00000
      3       4.3944      2.00000
      4       5.2602      2.00000
      5       6.4143      2.00583
      6      13.9119      0.00000
      7      15.1772      0.00000
      8      18.0927      0.00000

 k-point   397 :      -0.1538   -0.4615    0.4444
  band No.  band energies     occupation 
      1       1.3005      2.00000
      2       3.2277      2.00000
      3       4.5619      2.00000
      4       5.5611      2.00000
      5       8.2050      2.05954
      6      11.6948      0.00000
      7      12.8730      0.00000
      8      17.4010      0.00000

 k-point   398 :      -0.0769   -0.4615    0.4444
  band No.  band energies     occupation 
      1       1.5358      2.00000
      2       2.4462      2.00000
      3       5.8654      2.00000
      4       6.8071      2.00000
      5       8.5470      2.01780
      6      10.9324      0.00000
      7      11.5088      0.00000
      8      16.5332      0.00000

 k-point   399 :      -0.3846   -0.3846    0.4444
  band No.  band energies     occupation 
      1       1.5716      2.00000
      2       1.6536      2.00000
      3       3.6652      2.00000
      4       3.6873      2.00000
      5       7.2380      2.12676
      6      16.8471      0.00000
      7      18.1518      0.00000
      8      18.4373      0.00000

 k-point   400 :      -0.3077   -0.3846    0.4444
  band No.  band energies     occupation 
      1       1.7026      2.00000
      2       2.4670      2.00000
      3       4.4679      2.00000
      4       5.0023      2.00000
      5       5.6113      2.00000
      6      14.3358      0.00000
      7      15.9292      0.00000
      8      17.3076      0.00000

 k-point   401 :      -0.2308   -0.3846    0.4444
  band No.  band energies     occupation 
      1       1.9079      2.00000
      2       3.0370      2.00000
      3       4.1127      2.00000
      4       5.6699      2.00000
      5       7.2543      2.03420
      6      11.9789      0.00000
      7      13.6689      0.00000
      8      16.5464      0.00000

 k-point   402 :      -0.1538   -0.3846    0.4444
  band No.  band energies     occupation 
      1       1.4715      2.00000
      2       2.8504      2.00000
      3       5.3016      2.00000
      4       6.8843      2.00000
      5       8.5713      1.97329
      6      10.6795      0.00000
      7      11.7136      0.00000
      8      16.0475      0.00000

 k-point   403 :      -0.0769   -0.3846    0.4444
  band No.  band energies     occupation 
      1       0.4118      2.00000
      2       3.5930      2.00000
      3       6.8366      2.00000
      4       6.9588      2.00000
      5       8.1804      2.11170
      6      10.4894      0.00000
      7      12.5703      0.00000
      8      15.3790      0.00000

 k-point   404 :      -0.3077   -0.3077    0.4444
  band No.  band energies     occupation 
      1       2.3220      2.00000
      2       2.8971      2.00000
      3       3.7068      2.00000
      4       6.3114      2.00000
      5       6.4398      2.03978
      6      11.9789      0.00000
      7      14.6151      0.00000
      8      15.6123      0.00000

 k-point   405 :      -0.2308   -0.3077    0.4444
  band No.  band energies     occupation 
      1       1.3846      2.00000
      2       3.5309      2.00000
      3       4.3963      2.00000
      4       7.4001      2.00000
      5       8.1874      1.95342
      6      10.2641      0.00000
      7      12.9128      0.00000
      8      14.7455      0.00000

 k-point   406 :      -0.1538   -0.3077    0.4444
  band No.  band energies     occupation 
      1       0.2075      2.00000
      2       4.2595      2.00000
      3       5.9370      2.00000
      4       6.8805      2.00000
      5       9.0644      1.06142
      6      11.0810      0.00000
      7      11.9003      0.00000
      8      14.4392      0.00000

 k-point   407 :      -0.0769   -0.3077    0.4444
  band No.  band energies     occupation 
      1      -0.7381      2.00000
      2       4.7937      2.00000
      3       5.6833      2.00000
      4       7.5124      2.00000
      5       8.9484      0.82643
      6      11.9542      0.00000
      7      13.5947      0.00000
      8      14.2299      0.00000

 k-point   408 :      -0.2308   -0.2308    0.4444
  band No.  band energies     occupation 
      1       0.1389      2.00000
      2       4.9653      2.00000
      3       5.1389      2.00000
      4       6.8457      2.00000
      5       9.5385      0.41319
      6      10.8936      0.00000
      7      12.5847      0.00000
      8      13.2538      0.00000

 k-point   409 :      -0.1538   -0.2308    0.4444
  band No.  band energies     occupation 
      1      -0.8804      2.00000
      2       4.8481      2.00000
      3       6.2009      2.00000
      4       6.9531      2.00000
      5       9.8045     -0.11617
      6      12.4076      0.00000
      7      12.7825      0.00000
      8      13.6919      0.00000

 k-point   410 :      -0.0769   -0.2308    0.4444
  band No.  band energies     occupation 
      1      -1.6148      2.00000
      2       3.3687      2.00000
      3       7.2771      2.00000
      4       8.1197      2.08165
      5       9.7402     -0.01163
      6      12.5546      0.00000
      7      13.4521      0.00000
      8      14.8098      0.00000

 k-point   411 :      -0.1538   -0.1538    0.4444
  band No.  band energies     occupation 
      1      -1.6868      2.00000
      2       3.3109      2.00000
      3       7.7843      2.00000
      4       8.1757      2.02419
      5       9.9958      0.00000
      6      11.6118      0.00000
      7      14.6011      0.00000
      8      14.7135      0.00000

 k-point   412 :      -0.0769   -0.1538    0.4444
  band No.  band energies     occupation 
      1      -2.1948      2.00000
      2       1.9294      2.00000
      3       8.1874      2.01251
      4       9.6097      0.17979
      5      10.9065      0.00000
      6      11.5747      0.00000
      7      13.2064      0.00000
      8      15.0492      0.00000

 k-point   413 :      -0.0769   -0.0769    0.4444
  band No.  band energies     occupation 
      1      -2.4707      2.00000
      2       0.7479      2.00000
      3       8.4464      2.03105
      4      10.5589      0.00000
      5      11.1141      0.00000
      6      12.6787      0.00000
      7      13.5922      0.00000
      8      14.0144      0.00000


--------------------------------------------------------------------------------------------------------


 soft charge-density along one line, spin component           1
         0         1         2         3         4         5         6         7         8         9
 total charge-density along one line

 pseudopotential strength for first ion, spin component:           1
 18.071  25.210  -0.000   0.000   0.000  -0.000   0.000   0.000
 25.210  35.175  -0.000   0.000   0.000  -0.000   0.000   0.000
 -0.000  -0.000   4.118   0.000   0.000   7.672   0.000   0.001
  0.000   0.000   0.000   4.117   0.000   0.000   7.670   0.000
  0.000   0.000   0.000   0.000   4.117   0.001   0.000   7.671
 -0.000  -0.000   7.672   0.000   0.001  14.303   0.000   0.001
  0.000   0.000   0.000   7.670   0.000   0.000  14.300   0.000
  0.000   0.000   0.001   0.000   7.671   0.001   0.000  14.301
 total augmentation occupancy for first ion, spin component:           1
  5.075  -1.964   0.000   0.000   0.000   0.000   0.000   0.000
 -1.964   1.034   0.000   0.000   0.000   0.000  -0.000  -0.000
  0.000   0.000   2.402   0.000  -0.098  -0.545  -0.000   0.023
  0.000   0.000   0.000   2.650   0.000  -0.000  -0.603  -0.000
  0.000  -0.000  -0.098   0.000   2.611   0.023  -0.000  -0.594
  0.000   0.000  -0.545  -0.000   0.023   0.136   0.000  -0.006
  0.000   0.000  -0.000  -0.603  -0.000   0.000   0.150   0.000
  0.000   0.000   0.023  -0.000  -0.594  -0.006   0.000   0.148


------------------------ aborting loop because EDIFF is reached ----------------------------------------





 total charge

# of ion       s       p       d       tot
------------------------------------------
    1        0.789   0.812   0.000   1.601
    2        0.789   0.812   0.000   1.601
--------------------------------------------------
tot          1.578   1.624   0.000   3.202

    CHARGE:  cpu time      0.1522: real time      0.1527
    FORLOC:  cpu time      0.0003: real time      0.0003
    FORNL :  cpu time      0.0756: real time      0.0761
    STRESS:  cpu time      0.3334: real time      0.3365
    FORCOR:  cpu time      0.0064: real time      0.0064
    FORHAR:  cpu time      0.0014: real time      0.0014
    MIXING:  cpu time      0.0002: real time      0.0002
    OFIELD:  cpu time      0.0000: real time      0.0000

  FORCE on cell =-STRESS in cart. coord.  units (eV):
  Direction    XX          YY          ZZ          XY          YZ          ZX
  --------------------------------------------------------------------------------------
  Alpha Z     4.37876     4.37876     4.37876
  Ewald     -87.55744   -90.16688   -87.07787    -1.21703    -0.00002    -0.00001
  Hartree     0.83647     0.82365     0.83882    -0.00598     0.00000     0.00000
  E(xc)     -25.40346   -25.28425   -25.42536     0.05560     0.00000     0.00000
  Local     -14.46412   -10.14873   -15.25722     2.01268    -0.00008    -0.00003
  n-local    77.27292    75.06197    77.63312    -0.88309    -0.02637     0.10211
  augment   -12.08328   -11.90113   -12.11673     0.08496     0.00001     0.00001
  Kinetic    57.74348    56.36334    57.05939     0.82986    -0.16555     0.43431
  Fock        0.00000     0.00000     0.00000     0.00000     0.00000     0.00000
  -------------------------------------------------------------------------------------
  Total      -0.03259    -0.05620    -0.02825    -0.01101    -0.00000    -0.00000
  in kB      -1.69778    -2.92811    -1.47170    -0.57382    -0.00000    -0.00000
  external pressure =       -2.03 kB  Pullay stress =        0.00 kB


 VOLUME and BASIS-vectors are now :
 -----------------------------------------------------------------------------
  energy-cutoff  :      400.00
  volume of cell :       30.75
      direct lattice vectors                 reciprocal lattice vectors
     3.645705931  0.000000000  0.000000000     0.274295299  0.294057435  0.147407605
    -2.665928315  2.486764555  0.000000000    -0.000000000  0.402128942  0.147407605
    -0.489885495 -1.243373869  3.391932310     0.000000000 -0.000000000  0.294817204

  length of vectors
     3.645705931  3.645705931  3.645705853     0.428295095  0.428295095  0.294817204


 FORCES acting on ions
    electron-ion (+dipol)            ewald-force                    non-local-force                 convergence-correction
 -----------------------------------------------------------------------------------------------
   0.243E-04 -.958E-05 0.260E-13   -.452E-04 0.178E-04 0.146E-13   0.238E-17 0.753E-17 0.100E-17   0.237E-08 -.935E-09 -.104E-15
   -.243E-04 0.958E-05 -.221E-13   0.452E-04 -.178E-04 -.148E-13   -.404E-17 -.719E-17 -.184E-17   -.237E-08 0.935E-09 0.183E-15
 -----------------------------------------------------------------------------------------------
   0.259E-13 -.119E-13 0.397E-14   0.187E-16 0.258E-15 -.174E-15   -.166E-17 0.344E-18 -.840E-18   -.179E-15 0.695E-16 0.795E-16


 POSITION                                       TOTAL-FORCE (eV/Angst)
 -----------------------------------------------------------------------------------
      1.82285      0.00000      1.69597        -0.000000      0.000000     -0.000000
      0.00000      0.00000      0.00000         0.000000     -0.000000      0.000000
 -----------------------------------------------------------------------------------
    total drift:                                0.000000     -0.000000      0.000000


--------------------------------------------------------------------------------------------------------



  FREE ENERGIE OF THE ION-ELECTRON SYSTEM (eV)
  ---------------------------------------------------
  free  energy   TOTEN  =       -10.26737701 eV

  energy  without entropy=      -10.26737701  energy(sigma->0) =      -10.26737701



--------------------------------------------------------------------------------------------------------


    POTLOK:  cpu time      0.0073: real time      0.0073


--------------------------------------------------------------------------------------------------------


 writing wavefunctions
     LOOP+:  cpu time     16.8748: real time     16.9794
 -----------------------------------------------------------------------------
|                                                                             |
|           W    W    AA    RRRRR   N    N  II  N    N   GGGG   !!!           |
|           W    W   A  A   R    R  NN   N  II  NN   N  G    G  !!!           |
|           W    W  A    A  R    R  N N  N  II  N N  N  G       !!!           |
|           W WW W  AAAAAA  RRRRR   N  N N  II  N  N N  G  GGG   !            |
|           WW  WW  A    A  R   R   N   NN  II  N   NN  G    G                |
|           W    W  A    A  R    R  N    N  II  N    N   GGGG   !!!           |
|                                                                             |
|     Tetrahedron method does not include variations of the Fermi             |
|     occupations, so forces and stress will be inaccurate. We suggest        |
|     using a different smearing scheme ISMEAR = 1 or 2 for metals in         |
|     relaxations.                                                            |
|                                                                             |
 -----------------------------------------------------------------------------

    4ORBIT:  cpu time      0.0000: real time      0.0000



 total charge

# of ion       s       p       d       tot
------------------------------------------
    1        0.789   0.812   0.000   1.601
    2        0.789   0.812   0.000   1.601
--------------------------------------------------
tot          1.578   1.624   0.000   3.202

 BZINTS: Fermi energy:    9.031401;    8.000000 electrons
         Band energy: 0.290456E+02;  BLOECHL correction:   -0.124535

 total amount of memory used by VASP MPI-rank0    55307. kBytes
=======================================================================

   base      :      30000. kBytes
   nonl-proj :       7568. kBytes
   fftplans  :        914. kBytes
   grid      :       1280. kBytes
   one-center:          3. kBytes
   wavefun   :      15542. kBytes

  
  
 General timing and accounting informations for this job:
 ========================================================
  
                  Total CPU time used (sec):       18.951
                            User time (sec):       16.855
                          System time (sec):        2.095
                         Elapsed time (sec):       19.259
  
                   Maximum memory used (kb):       75512.
                   Average memory used (kb):          N/A
  
                          Minor page faults:        12064
                          Major page faults:            3
                 Voluntary context switches:         1148
