 vasp.6.4.2 20Jul23 (build Oct 18 2023 12:49:41) complex                         
 executed on             LinuxGNU date 2025.04.10  21:41:55
 running    2 mpi-ranks, with    1 threads/rank, on    1 nodes
 distrk:  each k-point on    2 cores,    1 groups
 distr:  one band on NCORE=   1 cores,    2 groups


--------------------------------------------------------------------------------------------------------


 INCAR:
   SYSTEM = si-sym141
   ISMEAR = -5
   ENCUT = 400
   KSPACING = 0.207345
   LORBIT = 11
   NSIM = 1

 POTCAR:    PAW_PBE Si 05Jan2001                  
 POTCAR:    PAW_PBE Si 05Jan2001                  
   SHA256 =  79d9987ad8750f624c4d6acb2a16d13abf6a777132adc04dc6c8399be72b42bb Si/POTCAR             
   COPYR  = (c) Copyright 05Jan2001 Georg Kresse                                                    
   COPYR  = This file is part of the software VASP. Any use, copying, and all other rights are regul
   COPYR  = If you do not have a valid VASP license, you may not use, copy or distribute this file. 
   VRHFIN =Si: s2p2                                                                                 
   LEXCH  = PE                                                                                      
   EATOM  =   103.0669 eV,    7.5752 Ry                                                             
                                                                                                    
   TITEL  = PAW_PBE Si 05Jan2001                                                                    
   LULTRA =        F    use ultrasoft PP ?                                                          
   IUNSCR =        1    unscreen: 0-lin 1-nonlin 2-no                                               
   RPACOR =    1.500    partial core radius                                                         
   POMASS =   28.085; ZVAL   =    4.000    mass and valenz                                          
   RCORE  =    1.900    outmost cutoff radius                                                       
   RWIGS  =    2.480; RWIGS  =    1.312    wigner-seitz radius (au A)                               
   ENMAX  =  245.345; ENMIN  =  184.009 eV                                                          
   ICORE  =        2    local potential                                                             
   LCOR   =        T    correct aug charges                                                         
   LPAW   =        T    paw PP                                                                      
   EAUG   =  322.069                                                                                
   DEXC   =    0.000                                                                                
   RMAX   =    1.950    core radius for proj-oper                                                   
   RAUG   =    1.300    factor for augmentation sphere                                              
   RDEP   =    1.993    radius for radial grids                                                     
   RDEPT  =    1.837    core radius for aug-charge                                                  
                                                                                                    
   Atomic configuration                                                                             
    6 entries                                                                                       
     n  l   j            E        occ.                                                              
     1  0  0.50     -1785.8828   2.0000                                                             
     2  0  0.50      -139.4969   2.0000                                                             
     2  1  1.50       -95.5546   6.0000                                                             
     3  0  0.50       -10.8127   2.0000                                                             
     3  1  0.50        -4.0811   2.0000                                                             
     3  2  1.50        -4.0817   0.0000                                                             
   Description                                                                                      
     l       E           TYP  RCUT    TYP  RCUT                                                     
     0    -10.8127223     23  1.900                                                                 
     0     -7.6451159     23  1.900                                                                 
     1     -4.0811372     23  1.900                                                                 
     1      2.4879257     23  1.900                                                                 
     2     -4.0817478      7  1.900                                                                 
  local pseudopotential read in
  partial core-charges read in
  partial kinetic energy density read in
  atomic valenz-charges read in
  non local Contribution for L=           0  read in
    real space projection operators read in
  non local Contribution for L=           0  read in
    real space projection operators read in
  non local Contribution for L=           1  read in
    real space projection operators read in
  non local Contribution for L=           1  read in
    real space projection operators read in
    PAW grid and wavefunctions read in

   number of l-projection  operators is LMAX  =           4
   number of lm-projection operators is LMMAX =           8

  PAW_PBE Si 05Jan2001                  :
 energy of atom  1       EATOM= -103.0669
 kinetic energy error for atom=    0.0012 (will be added to EATOM!!)


 POSCAR: SYSTEM
  positions in direct lattice
  No initial velocities read in
 exchange correlation table for  LEXCH =        8
   RHO(1)=    0.500       N(1)  =     2000
   RHO(2)=  100.500       N(2)  =     4000



--------------------------------------------------------------------------------------------------------


 ion  position               nearest neighbor table
   1  0.750  0.250  0.500-   2 2.49   2 2.49   2 2.49   2 2.49   2 3.13   2 3.13   2 3.13   2 3.13

   2  0.000  0.000  0.000-   1 2.49   1 2.49   1 2.49   1 2.49   1 3.13   1 3.13   1 3.13   1 3.13


  LATTYP: Found a body centered tetragonal cell.
 ALAT       =     4.7969142158
 C/A-ratio  =     0.5571955251
  
  Lattice vectors:
  
 A1 = (   3.6457059309,   0.0000000000,   0.0000000000)
 A2 = (  -2.6659283149,   2.4867645555,   0.0000000000)
 A3 = (  -0.4898854949,  -1.2433738688,   3.3919323096)


Analysis of symmetry for initial positions (statically):
=====================================================================
 Subroutine PRICEL returns:
 Original cell was already a primitive cell.
 

 Routine SETGRP: Setting up the symmetry group for a 
 body centered tetragonal supercell.


 Subroutine GETGRP returns: Found 16 space group operations
 (whereof  8 operations were pure point group operations)
 out of a pool of 16 trial point group operations.


The static configuration has the point symmetry D_2d.
 The point group associated with its full space group is D_4h.


Analysis of symmetry for dynamics (positions and initial velocities):
=====================================================================
 Subroutine PRICEL returns:
 Original cell was already a primitive cell.
 

 Routine SETGRP: Setting up the symmetry group for a 
 body centered tetragonal supercell.


 Subroutine GETGRP returns: Found 16 space group operations
 (whereof  8 operations were pure point group operations)
 out of a pool of 16 trial point group operations.


The dynamic configuration has the point symmetry D_2d.
 The point group associated with its full space group is D_4h.


 Subroutine INISYM returns: Found 16 space group operations
 (whereof  8 operations are pure point group operations),
 and found     1 'primitive' translations


----------------------------------------------------------------------------------------

                                     Primitive cell                                     

  volume of cell :      30.7513

  direct lattice vectors                    reciprocal lattice vectors
     3.645705931  0.000000000  0.000000000     0.274295299  0.294057435  0.147407605
    -2.665928315  2.486764555  0.000000000    -0.000000000  0.402128942  0.147407605
    -0.489885495 -1.243373869  3.391932310     0.000000000 -0.000000000  0.294817204

  length of vectors
     3.645705931  3.645705931  3.645705853     0.428295095  0.428295095  0.294817204

  position of ions in fractional coordinates (direct lattice)
     0.750000000  0.250000000  0.500000000
     0.000000000  0.000000000  0.000000000

  ion indices of the primitive-cell ions
   primitive index   ion index
                 1           1
                 2           2

----------------------------------------------------------------------------------------


 -----------------------------------------------------------------------------
|                                                                             |
|           W    W    AA    RRRRR   N    N  II  N    N   GGGG   !!!           |
|           W    W   A  A   R    R  NN   N  II  NN   N  G    G  !!!           |
|           W    W  A    A  R    R  N N  N  II  N N  N  G       !!!           |
|           W WW W  AAAAAA  RRRRR   N  N N  II  N  N N  G  GGG   !            |
|           WW  WW  A    A  R   R   N   NN  II  N   NN  G    G                |
|           W    W  A    A  R    R  N    N  II  N    N   GGGG   !!!           |
|                                                                             |
|     The requested file  could not be found or opened for reading            |
|     k-point information. Automatic k-point generation is used as a          |
|     fallback, which may lead to unwanted results.                           |
|                                                                             |
 -----------------------------------------------------------------------------



Automatic generation of k-mesh.
 Grid dimensions derived from KSPACING:
 generate k-points for:   13   13    9

 Generating k-lattice:

  Cartesian coordinates                     Fractional coordinates (reciprocal lattice)
     0.021099638  0.022619803  0.011339047     0.076923077 -0.000000000 -0.000000000
    -0.000000000  0.030932996  0.011339047     0.000000000  0.076923077 -0.000000000
     0.000000000 -0.000000000  0.032757467     0.000000000  0.000000000  0.111111111

  Length of vectors
     0.032945777  0.032945777  0.032757467

  Shift w.r.t. Gamma in fractional coordinates (k-lattice)
     0.000000000  0.000000000  0.000000000

 -----------------------------------------------------------------------------
|                                                                             |
|           W    W    AA    RRRRR   N    N  II  N    N   GGGG   !!!           |
|           W    W   A  A   R    R  NN   N  II  NN   N  G    G  !!!           |
|           W    W  A    A  R    R  N N  N  II  N N  N  G       !!!           |
|           W WW W  AAAAAA  RRRRR   N  N N  II  N  N N  G  GGG   !            |
|           WW  WW  A    A  R   R   N   NN  II  N   NN  G    G                |
|           W    W  A    A  R    R  N    N  II  N    N   GGGG   !!!           |
|                                                                             |
|     Your reciprocal lattice and k-lattice belong to different lattice       |
|     classes:                                                                |
|                                                                             |
|        The reciprocal lattice is body-centered tetragonal,                  |
|        whereas your k-lattice is base-centered monoclinic.                  |
|                                                                             |
|     Results are often still useful ...                                      |
|                                                                             |
 -----------------------------------------------------------------------------

 WARNING: IBZKPT: internal override: KBLOWUP is changed to .FALSE.
      ... skipping the blow-up phase ...

 TETIRR: Found   4540 inequivalent tetrahedra from     9126
 
 Subroutine IBZKPT returns following result:
 ===========================================
 
 Found    413 irreducible k-points:
 
 Following reciprocal coordinates:
            Coordinates               Weight
  0.000000  0.000000  0.000000      1.000000
  0.076923  0.000000  0.000000      4.000000
  0.153846  0.000000  0.000000      4.000000
  0.230769  0.000000  0.000000      4.000000
  0.307692  0.000000  0.000000      4.000000
  0.384615  0.000000  0.000000      4.000000
  0.461538  0.000000  0.000000      4.000000
  0.076923  0.076923  0.000000      2.000000
  0.153846  0.076923  0.000000      4.000000
  0.230769  0.076923  0.000000      4.000000
  0.307692  0.076923  0.000000      4.000000
  0.384615  0.076923  0.000000      4.000000
  0.461538  0.076923  0.000000      4.000000
 -0.461538  0.076923  0.000000      4.000000
 -0.384615  0.076923  0.000000      4.000000
 -0.307692  0.076923  0.000000      4.000000
 -0.230769  0.076923  0.000000      4.000000
 -0.153846  0.076923  0.000000      4.000000
 -0.076923  0.076923  0.000000      2.000000
  0.153846  0.153846  0.000000      2.000000
  0.230769  0.153846  0.000000      4.000000
  0.307692  0.153846  0.000000      4.000000
  0.384615  0.153846  0.000000      4.000000
  0.461538  0.153846  0.000000      4.000000
 -0.461538  0.153846  0.000000      4.000000
 -0.384615  0.153846  0.000000      4.000000
 -0.307692  0.153846  0.000000      4.000000
 -0.230769  0.153846  0.000000      4.000000
 -0.153846  0.153846  0.000000      2.000000
  0.230769  0.230769  0.000000      2.000000
  0.307692  0.230769  0.000000      4.000000
  0.384615  0.230769  0.000000      4.000000
  0.461538  0.230769  0.000000      4.000000
 -0.461538  0.230769  0.000000      4.000000
 -0.384615  0.230769  0.000000      4.000000
 -0.307692  0.230769  0.000000      4.000000
 -0.230769  0.230769  0.000000      2.000000
  0.307692  0.307692  0.000000      2.000000
  0.384615  0.307692  0.000000      4.000000
  0.461538  0.307692  0.000000      4.000000
 -0.461538  0.307692  0.000000      4.000000
 -0.384615  0.307692  0.000000      4.000000
 -0.307692  0.307692  0.000000      2.000000
  0.384615  0.384615  0.000000      2.000000
  0.461538  0.384615  0.000000      4.000000
 -0.461538  0.384615  0.000000      4.000000
 -0.384615  0.384615  0.000000      2.000000
  0.461538  0.461538  0.000000      2.000000
 -0.461538  0.461538  0.000000      2.000000
  0.000000  0.000000  0.111111      2.000000
  0.076923  0.000000  0.111111      4.000000
  0.153846  0.000000  0.111111      4.000000
  0.230769  0.000000  0.111111      4.000000
  0.307692  0.000000  0.111111      4.000000
  0.384615  0.000000  0.111111      4.000000
  0.461538  0.000000  0.111111      4.000000
 -0.461538  0.000000  0.111111      4.000000
 -0.384615  0.000000  0.111111      4.000000
 -0.307692  0.000000  0.111111      4.000000
 -0.230769  0.000000  0.111111      4.000000
 -0.153846  0.000000  0.111111      4.000000
 -0.076923  0.000000  0.111111      4.000000
  0.076923  0.076923  0.111111      2.000000
  0.153846  0.076923  0.111111      4.000000
  0.230769  0.076923  0.111111      4.000000
  0.307692  0.076923  0.111111      4.000000
  0.384615  0.076923  0.111111      4.000000
  0.461538  0.076923  0.111111      4.000000
 -0.461538  0.076923  0.111111      4.000000
 -0.384615  0.076923  0.111111      4.000000
 -0.307692  0.076923  0.111111      4.000000
 -0.230769  0.076923  0.111111      4.000000
 -0.153846  0.076923  0.111111      4.000000
 -0.076923  0.076923  0.111111      4.000000
  0.153846  0.153846  0.111111      2.000000
  0.230769  0.153846  0.111111      4.000000
  0.307692  0.153846  0.111111      4.000000
  0.384615  0.153846  0.111111      4.000000
  0.461538  0.153846  0.111111      4.000000
 -0.461538  0.153846  0.111111      4.000000
 -0.384615  0.153846  0.111111      4.000000
 -0.307692  0.153846  0.111111      4.000000
 -0.230769  0.153846  0.111111      4.000000
 -0.153846  0.153846  0.111111      4.000000
 -0.076923  0.153846  0.111111      4.000000
  0.230769  0.230769  0.111111      2.000000
  0.307692  0.230769  0.111111      4.000000
  0.384615  0.230769  0.111111      4.000000
  0.461538  0.230769  0.111111      4.000000
 -0.461538  0.230769  0.111111      4.000000
 -0.384615  0.230769  0.111111      4.000000
 -0.307692  0.230769  0.111111      4.000000
 -0.230769  0.230769  0.111111      4.000000
 -0.153846  0.230769  0.111111      4.000000
 -0.076923  0.230769  0.111111      4.000000
  0.307692  0.307692  0.111111      2.000000
  0.384615  0.307692  0.111111      4.000000
  0.461538  0.307692  0.111111      4.000000
 -0.461538  0.307692  0.111111      4.000000
 -0.384615  0.307692  0.111111      4.000000
 -0.307692  0.307692  0.111111      4.000000
 -0.230769  0.307692  0.111111      4.000000
 -0.153846  0.307692  0.111111      4.000000
 -0.076923  0.307692  0.111111      4.000000
  0.384615  0.384615  0.111111      2.000000
  0.461538  0.384615  0.111111      4.000000
 -0.461538  0.384615  0.111111      4.000000
 -0.384615  0.384615  0.111111      4.000000
 -0.307692  0.384615  0.111111      4.000000
 -0.230769  0.384615  0.111111      4.000000
 -0.153846  0.384615  0.111111      4.000000
 -0.076923  0.384615  0.111111      4.000000
  0.461538  0.461538  0.111111      2.000000
 -0.461538  0.461538  0.111111      4.000000
 -0.384615  0.461538  0.111111      4.000000
 -0.307692  0.461538  0.111111      4.000000
 -0.230769  0.461538  0.111111      4.000000
 -0.153846  0.461538  0.111111      4.000000
 -0.076923  0.461538  0.111111      4.000000
 -0.461538 -0.461538  0.111111      2.000000
 -0.384615 -0.461538  0.111111      4.000000
 -0.307692 -0.461538  0.111111      4.000000
 -0.230769 -0.461538  0.111111      4.000000
 -0.153846 -0.461538  0.111111      4.000000
 -0.076923 -0.461538  0.111111      4.000000
 -0.384615 -0.384615  0.111111      2.000000
 -0.307692 -0.384615  0.111111      4.000000
 -0.230769 -0.384615  0.111111      4.000000
 -0.153846 -0.384615  0.111111      4.000000
 -0.076923 -0.384615  0.111111      4.000000
 -0.307692 -0.307692  0.111111      2.000000
 -0.230769 -0.307692  0.111111      4.000000
 -0.153846 -0.307692  0.111111      4.000000
 -0.076923 -0.307692  0.111111      4.000000
 -0.230769 -0.230769  0.111111      2.000000
 -0.153846 -0.230769  0.111111      4.000000
 -0.076923 -0.230769  0.111111      4.000000
 -0.153846 -0.153846  0.111111      2.000000
 -0.076923 -0.153846  0.111111      4.000000
 -0.076923 -0.076923  0.111111      2.000000
  0.000000  0.000000  0.222222      2.000000
  0.076923  0.000000  0.222222      4.000000
  0.153846  0.000000  0.222222      4.000000
  0.230769  0.000000  0.222222      4.000000
  0.307692  0.000000  0.222222      4.000000
  0.384615  0.000000  0.222222      4.000000
  0.461538  0.000000  0.222222      4.000000
 -0.461538  0.000000  0.222222      4.000000
 -0.384615  0.000000  0.222222      4.000000
 -0.307692  0.000000  0.222222      4.000000
 -0.230769  0.000000  0.222222      4.000000
 -0.153846  0.000000  0.222222      4.000000
 -0.076923  0.000000  0.222222      4.000000
  0.076923  0.076923  0.222222      2.000000
  0.153846  0.076923  0.222222      4.000000
  0.230769  0.076923  0.222222      4.000000
  0.307692  0.076923  0.222222      4.000000
  0.384615  0.076923  0.222222      4.000000
  0.461538  0.076923  0.222222      4.000000
 -0.461538  0.076923  0.222222      4.000000
 -0.384615  0.076923  0.222222      4.000000
 -0.307692  0.076923  0.222222      4.000000
 -0.230769  0.076923  0.222222      4.000000
 -0.153846  0.076923  0.222222      4.000000
 -0.076923  0.076923  0.222222      4.000000
  0.153846  0.153846  0.222222      2.000000
  0.230769  0.153846  0.222222      4.000000
  0.307692  0.153846  0.222222      4.000000
  0.384615  0.153846  0.222222      4.000000
  0.461538  0.153846  0.222222      4.000000
 -0.461538  0.153846  0.222222      4.000000
 -0.384615  0.153846  0.222222      4.000000
 -0.307692  0.153846  0.222222      4.000000
 -0.230769  0.153846  0.222222      4.000000
 -0.153846  0.153846  0.222222      4.000000
 -0.076923  0.153846  0.222222      4.000000
  0.230769  0.230769  0.222222      2.000000
  0.307692  0.230769  0.222222      4.000000
  0.384615  0.230769  0.222222      4.000000
  0.461538  0.230769  0.222222      4.000000
 -0.461538  0.230769  0.222222      4.000000
 -0.384615  0.230769  0.222222      4.000000
 -0.307692  0.230769  0.222222      4.000000
 -0.230769  0.230769  0.222222      4.000000
 -0.153846  0.230769  0.222222      4.000000
 -0.076923  0.230769  0.222222      4.000000
  0.307692  0.307692  0.222222      2.000000
  0.384615  0.307692  0.222222      4.000000
  0.461538  0.307692  0.222222      4.000000
 -0.461538  0.307692  0.222222      4.000000
 -0.384615  0.307692  0.222222      4.000000
 -0.307692  0.307692  0.222222      4.000000
 -0.230769  0.307692  0.222222      4.000000
 -0.153846  0.307692  0.222222      4.000000
 -0.076923  0.307692  0.222222      4.000000
  0.384615  0.384615  0.222222      2.000000
  0.461538  0.384615  0.222222      4.000000
 -0.461538  0.384615  0.222222      4.000000
 -0.384615  0.384615  0.222222      4.000000
 -0.307692  0.384615  0.222222      4.000000
 -0.230769  0.384615  0.222222      4.000000
 -0.153846  0.384615  0.222222      4.000000
 -0.076923  0.384615  0.222222      4.000000
  0.461538  0.461538  0.222222      2.000000
 -0.461538  0.461538  0.222222      4.000000
 -0.384615  0.461538  0.222222      4.000000
 -0.307692  0.461538  0.222222      4.000000
 -0.230769  0.461538  0.222222      4.000000
 -0.153846  0.461538  0.222222      4.000000
 -0.076923  0.461538  0.222222      4.000000
 -0.461538 -0.461538  0.222222      2.000000
 -0.384615 -0.461538  0.222222      4.000000
 -0.307692 -0.461538  0.222222      4.000000
 -0.230769 -0.461538  0.222222      4.000000
 -0.153846 -0.461538  0.222222      4.000000
 -0.076923 -0.461538  0.222222      4.000000
 -0.384615 -0.384615  0.222222      2.000000
 -0.307692 -0.384615  0.222222      4.000000
 -0.230769 -0.384615  0.222222      4.000000
 -0.153846 -0.384615  0.222222      4.000000
 -0.076923 -0.384615  0.222222      4.000000
 -0.307692 -0.307692  0.222222      2.000000
 -0.230769 -0.307692  0.222222      4.000000
 -0.153846 -0.307692  0.222222      4.000000
 -0.076923 -0.307692  0.222222      4.000000
 -0.230769 -0.230769  0.222222      2.000000
 -0.153846 -0.230769  0.222222      4.000000
 -0.076923 -0.230769  0.222222      4.000000
 -0.153846 -0.153846  0.222222      2.000000
 -0.076923 -0.153846  0.222222      4.000000
 -0.076923 -0.076923  0.222222      2.000000
  0.000000  0.000000  0.333333      2.000000
  0.076923  0.000000  0.333333      4.000000
  0.153846  0.000000  0.333333      4.000000
  0.230769  0.000000  0.333333      4.000000
  0.307692  0.000000  0.333333      4.000000
  0.384615  0.000000  0.333333      4.000000
  0.461538  0.000000  0.333333      4.000000
 -0.461538  0.000000  0.333333      4.000000
 -0.384615  0.000000  0.333333      4.000000
 -0.307692  0.000000  0.333333      4.000000
 -0.230769  0.000000  0.333333      4.000000
 -0.153846  0.000000  0.333333      4.000000
 -0.076923  0.000000  0.333333      4.000000
  0.076923  0.076923  0.333333      2.000000
  0.153846  0.076923  0.333333      4.000000
  0.230769  0.076923  0.333333      4.000000
  0.307692  0.076923  0.333333      4.000000
  0.384615  0.076923  0.333333      4.000000
  0.461538  0.076923  0.333333      4.000000
 -0.461538  0.076923  0.333333      4.000000
 -0.384615  0.076923  0.333333      4.000000
 -0.307692  0.076923  0.333333      4.000000
 -0.230769  0.076923  0.333333      4.000000
 -0.153846  0.076923  0.333333      4.000000
 -0.076923  0.076923  0.333333      4.000000
  0.153846  0.153846  0.333333      2.000000
  0.230769  0.153846  0.333333      4.000000
  0.307692  0.153846  0.333333      4.000000
  0.384615  0.153846  0.333333      4.000000
  0.461538  0.153846  0.333333      4.000000
 -0.461538  0.153846  0.333333      4.000000
 -0.384615  0.153846  0.333333      4.000000
 -0.307692  0.153846  0.333333      4.000000
 -0.230769  0.153846  0.333333      4.000000
 -0.153846  0.153846  0.333333      4.000000
 -0.076923  0.153846  0.333333      4.000000
  0.230769  0.230769  0.333333      2.000000
  0.307692  0.230769  0.333333      4.000000
  0.384615  0.230769  0.333333      4.000000
  0.461538  0.230769  0.333333      4.000000
 -0.461538  0.230769  0.333333      4.000000
 -0.384615  0.230769  0.333333      4.000000
 -0.307692  0.230769  0.333333      4.000000
 -0.230769  0.230769  0.333333      4.000000
 -0.153846  0.230769  0.333333      4.000000
 -0.076923  0.230769  0.333333      4.000000
  0.307692  0.307692  0.333333      2.000000
  0.384615  0.307692  0.333333      4.000000
  0.461538  0.307692  0.333333      4.000000
 -0.461538  0.307692  0.333333      4.000000
 -0.384615  0.307692  0.333333      4.000000
 -0.307692  0.307692  0.333333      4.000000
 -0.230769  0.307692  0.333333      4.000000
 -0.153846  0.307692  0.333333      4.000000
 -0.076923  0.307692  0.333333      4.000000
  0.384615  0.384615  0.333333      2.000000
  0.461538  0.384615  0.333333      4.000000
 -0.461538  0.384615  0.333333      4.000000
 -0.384615  0.384615  0.333333      4.000000
 -0.307692  0.384615  0.333333      4.000000
 -0.230769  0.384615  0.333333      4.000000
 -0.153846  0.384615  0.333333      4.000000
 -0.076923  0.384615  0.333333      4.000000
  0.461538  0.461538  0.333333      2.000000
 -0.461538  0.461538  0.333333      4.000000
 -0.384615  0.461538  0.333333      4.000000
 -0.307692  0.461538  0.333333      4.000000
 -0.230769  0.461538  0.333333      4.000000
 -0.153846  0.461538  0.333333      4.000000
 -0.076923  0.461538  0.333333      4.000000
 -0.461538 -0.461538  0.333333      2.000000
 -0.384615 -0.461538  0.333333      4.000000
 -0.307692 -0.461538  0.333333      4.000000
 -0.230769 -0.461538  0.333333      4.000000
 -0.153846 -0.461538  0.333333      4.000000
 -0.076923 -0.461538  0.333333      4.000000
 -0.384615 -0.384615  0.333333      2.000000
 -0.307692 -0.384615  0.333333      4.000000
 -0.230769 -0.384615  0.333333      4.000000
 -0.153846 -0.384615  0.333333      4.000000
 -0.076923 -0.384615  0.333333      4.000000
 -0.307692 -0.307692  0.333333      2.000000
 -0.230769 -0.307692  0.333333      4.000000
 -0.153846 -0.307692  0.333333      4.000000
 -0.076923 -0.307692  0.333333      4.000000
 -0.230769 -0.230769  0.333333      2.000000
 -0.153846 -0.230769  0.333333      4.000000
 -0.076923 -0.230769  0.333333      4.000000
 -0.153846 -0.153846  0.333333      2.000000
 -0.076923 -0.153846  0.333333      4.000000
 -0.076923 -0.076923  0.333333      2.000000
  0.000000  0.000000  0.444444      2.000000
  0.076923  0.000000  0.444444      4.000000
  0.153846  0.000000  0.444444      4.000000
  0.230769  0.000000  0.444444      4.000000
  0.307692  0.000000  0.444444      4.000000
  0.384615  0.000000  0.444444      4.000000
  0.461538  0.000000  0.444444      4.000000
 -0.461538  0.000000  0.444444      4.000000
 -0.384615  0.000000  0.444444      4.000000
 -0.307692  0.000000  0.444444      4.000000
 -0.230769  0.000000  0.444444      4.000000
 -0.153846  0.000000  0.444444      4.000000
 -0.076923  0.000000  0.444444      4.000000
  0.076923  0.076923  0.444444      2.000000
  0.153846  0.076923  0.444444      4.000000
  0.230769  0.076923  0.444444      4.000000
  0.307692  0.076923  0.444444      4.000000
  0.384615  0.076923  0.444444      4.000000
  0.461538  0.076923  0.444444      4.000000
 -0.461538  0.076923  0.444444      4.000000
 -0.384615  0.076923  0.444444      4.000000
 -0.307692  0.076923  0.444444      4.000000
 -0.230769  0.076923  0.444444      4.000000
 -0.153846  0.076923  0.444444      4.000000
 -0.076923  0.076923  0.444444      4.000000
  0.153846  0.153846  0.444444      2.000000
  0.230769  0.153846  0.444444      4.000000
  0.307692  0.153846  0.444444      4.000000
  0.384615  0.153846  0.444444      4.000000
  0.461538  0.153846  0.444444      4.000000
 -0.461538  0.153846  0.444444      4.000000
 -0.384615  0.153846  0.444444      4.000000
 -0.307692  0.153846  0.444444      4.000000
 -0.230769  0.153846  0.444444      4.000000
 -0.153846  0.153846  0.444444      4.000000
 -0.076923  0.153846  0.444444      4.000000
  0.230769  0.230769  0.444444      2.000000
  0.307692  0.230769  0.444444      4.000000
  0.384615  0.230769  0.444444      4.000000
  0.461538  0.230769  0.444444      4.000000
 -0.461538  0.230769  0.444444      4.000000
 -0.384615  0.230769  0.444444      4.000000
 -0.307692  0.230769  0.444444      4.000000
 -0.230769  0.230769  0.444444      4.000000
 -0.153846  0.230769  0.444444      4.000000
 -0.076923  0.230769  0.444444      4.000000
  0.307692  0.307692  0.444444      2.000000
  0.384615  0.307692  0.444444      4.000000
  0.461538  0.307692  0.444444      4.000000
 -0.461538  0.307692  0.444444      4.000000
 -0.384615  0.307692  0.444444      4.000000
 -0.307692  0.307692  0.444444      4.000000
 -0.230769  0.307692  0.444444      4.000000
 -0.153846  0.307692  0.444444      4.000000
 -0.076923  0.307692  0.444444      4.000000
  0.384615  0.384615  0.444444      2.000000
  0.461538  0.384615  0.444444      4.000000
 -0.461538  0.384615  0.444444      4.000000
 -0.384615  0.384615  0.444444      4.000000
 -0.307692  0.384615  0.444444      4.000000
 -0.230769  0.384615  0.444444      4.000000
 -0.153846  0.384615  0.444444      4.000000
 -0.076923  0.384615  0.444444      4.000000
  0.461538  0.461538  0.444444      2.000000
 -0.461538  0.461538  0.444444      4.000000
 -0.384615  0.461538  0.444444      4.000000
 -0.307692  0.461538  0.444444      4.000000
 -0.230769  0.461538  0.444444      4.000000
 -0.153846  0.461538  0.444444      4.000000
 -0.076923  0.461538  0.444444      4.000000
 -0.461538 -0.461538  0.444444      2.000000
 -0.384615 -0.461538  0.444444      4.000000
 -0.307692 -0.461538  0.444444      4.000000
 -0.230769 -0.461538  0.444444      4.000000
 -0.153846 -0.461538  0.444444      4.000000
 -0.076923 -0.461538  0.444444      4.000000
 -0.384615 -0.384615  0.444444      2.000000
 -0.307692 -0.384615  0.444444      4.000000
 -0.230769 -0.384615  0.444444      4.000000
 -0.153846 -0.384615  0.444444      4.000000
 -0.076923 -0.384615  0.444444      4.000000
 -0.307692 -0.307692  0.444444      2.000000
 -0.230769 -0.307692  0.444444      4.000000
 -0.153846 -0.307692  0.444444      4.000000
 -0.076923 -0.307692  0.444444      4.000000
 -0.230769 -0.230769  0.444444      2.000000
 -0.153846 -0.230769  0.444444      4.000000
 -0.076923 -0.230769  0.444444      4.000000
 -0.153846 -0.153846  0.444444      2.000000
 -0.076923 -0.153846  0.444444      4.000000
 -0.076923 -0.076923  0.444444      2.000000
 
 Following cartesian coordinates:
            Coordinates               Weight
  0.000000  0.000000  0.000000      1.000000
  0.021106  0.022626  0.011342      4.000000
  0.042211  0.045252  0.022684      4.000000
  0.063317  0.067878  0.034027      4.000000
  0.084422  0.090505  0.045369      4.000000
  0.105528  0.113131  0.056711      4.000000
  0.126633  0.135757  0.068053      4.000000
  0.021106  0.053568  0.022684      2.000000
  0.042211  0.076194  0.034027      4.000000
  0.063317  0.098820  0.045369      4.000000
  0.084422  0.121446  0.056711      4.000000
  0.105528  0.144072  0.068053      4.000000
  0.126633  0.166699  0.079396      4.000000
 -0.126633 -0.104815 -0.056711      4.000000
 -0.105528 -0.082189 -0.045369      4.000000
 -0.084422 -0.059563 -0.034027      4.000000
 -0.063317 -0.036937 -0.022684      4.000000
 -0.042211 -0.014311 -0.011342      4.000000
 -0.021106  0.008316  0.000000      2.000000
  0.042211  0.107136  0.045369      2.000000
  0.063317  0.129762  0.056711      4.000000
  0.084422  0.152388  0.068053      4.000000
  0.105528  0.175014  0.079396      4.000000
  0.126633  0.197640  0.090738      4.000000
 -0.126633 -0.073874 -0.045369      4.000000
 -0.105528 -0.051247 -0.034027      4.000000
 -0.084422 -0.028621 -0.022684      4.000000
 -0.063317 -0.005995 -0.011342      4.000000
 -0.042211  0.016631  0.000000      2.000000
  0.063317  0.160704  0.068053      2.000000
  0.084422  0.183330  0.079396      4.000000
  0.105528  0.205956  0.090738      4.000000
  0.126633  0.228582  0.102080      4.000000
 -0.126633 -0.042932 -0.034027      4.000000
 -0.105528 -0.020306 -0.022684      4.000000
 -0.084422  0.002320 -0.011342      4.000000
 -0.063317  0.024947  0.000000      2.000000
  0.084422  0.214271  0.090738      2.000000
  0.105528  0.236898  0.102080      4.000000
  0.126633  0.259524  0.113422      4.000000
 -0.126633 -0.011990 -0.022684      4.000000
 -0.105528  0.010636 -0.011342      4.000000
 -0.084422  0.033262  0.000000      2.000000
  0.105528  0.267839  0.113422      2.000000
  0.126633  0.290465  0.124765      4.000000
 -0.126633  0.018951 -0.011342      4.000000
 -0.105528  0.041578  0.000000      2.000000
  0.126633  0.321407  0.136107      2.000000
 -0.126633  0.049893  0.000000      2.000000
  0.000000  0.000000  0.032767      2.000000
  0.021106  0.022626  0.044109      4.000000
  0.042211  0.045252  0.055451      4.000000
  0.063317  0.067878  0.066793      4.000000
  0.084422  0.090505  0.078136      4.000000
  0.105528  0.113131  0.089478      4.000000
  0.126633  0.135757  0.100820      4.000000
 -0.126633 -0.135757 -0.035287      4.000000
 -0.105528 -0.113131 -0.023944      4.000000
 -0.084422 -0.090505 -0.012602      4.000000
 -0.063317 -0.067878 -0.001260      4.000000
 -0.042211 -0.045252  0.010082      4.000000
 -0.021106 -0.022626  0.021424      4.000000
  0.021106  0.053568  0.055451      2.000000
  0.042211  0.076194  0.066793      4.000000
  0.063317  0.098820  0.078136      4.000000
  0.084422  0.121446  0.089478      4.000000
  0.105528  0.144072  0.100820      4.000000
  0.126633  0.166699  0.112162      4.000000
 -0.126633 -0.104815 -0.023944      4.000000
 -0.105528 -0.082189 -0.012602      4.000000
 -0.084422 -0.059563 -0.001260      4.000000
 -0.063317 -0.036937  0.010082      4.000000
 -0.042211 -0.014311  0.021424      4.000000
 -0.021106  0.008316  0.032767      4.000000
  0.042211  0.107136  0.078136      2.000000
  0.063317  0.129762  0.089478      4.000000
  0.084422  0.152388  0.100820      4.000000
  0.105528  0.175014  0.112162      4.000000
  0.126633  0.197640  0.123505      4.000000
 -0.126633 -0.073874 -0.012602      4.000000
 -0.105528 -0.051247 -0.001260      4.000000
 -0.084422 -0.028621  0.010082      4.000000
 -0.063317 -0.005995  0.021424      4.000000
 -0.042211  0.016631  0.032767      4.000000
 -0.021106  0.039257  0.044109      4.000000
  0.063317  0.160704  0.100820      2.000000
  0.084422  0.183330  0.112162      4.000000
  0.105528  0.205956  0.123505      4.000000
  0.126633  0.228582  0.134847      4.000000
 -0.126633 -0.042932 -0.001260      4.000000
 -0.105528 -0.020306  0.010082      4.000000
 -0.084422  0.002320  0.021424      4.000000
 -0.063317  0.024947  0.032767      4.000000
 -0.042211  0.047573  0.044109      4.000000
 -0.021106  0.070199  0.055451      4.000000
  0.084422  0.214271  0.123505      2.000000
  0.105528  0.236898  0.134847      4.000000
  0.126633  0.259524  0.146189      4.000000
 -0.126633 -0.011990  0.010082      4.000000
 -0.105528  0.010636  0.021424      4.000000
 -0.084422  0.033262  0.032767      4.000000
 -0.063317  0.055888  0.044109      4.000000
 -0.042211  0.078514  0.055451      4.000000
 -0.021106  0.101141  0.066793      4.000000
  0.105528  0.267839  0.146189      2.000000
  0.126633  0.290465  0.157531      4.000000
 -0.126633  0.018951  0.021424      4.000000
 -0.105528  0.041578  0.032767      4.000000
 -0.084422  0.064204  0.044109      4.000000
 -0.063317  0.086830  0.055451      4.000000
 -0.042211  0.109456  0.066793      4.000000
 -0.021106  0.132082  0.078136      4.000000
  0.126633  0.321407  0.168873      2.000000
 -0.126633  0.049893  0.032767      4.000000
 -0.105528  0.072519  0.044109      4.000000
 -0.084422  0.095145  0.055451      4.000000
 -0.063317  0.117772  0.066793      4.000000
 -0.042211  0.140398  0.078136      4.000000
 -0.021106  0.163024  0.089478      4.000000
 -0.126633 -0.321407 -0.103340      2.000000
 -0.105528 -0.298781 -0.091998      4.000000
 -0.084422 -0.276155 -0.080656      4.000000
 -0.063317 -0.253529 -0.069313      4.000000
 -0.042211 -0.230902 -0.057971      4.000000
 -0.021106 -0.208276 -0.046629      4.000000
 -0.105528 -0.267839 -0.080656      2.000000
 -0.084422 -0.245213 -0.069313      4.000000
 -0.063317 -0.222587 -0.057971      4.000000
 -0.042211 -0.199961 -0.046629      4.000000
 -0.021106 -0.177335 -0.035287      4.000000
 -0.084422 -0.214271 -0.057971      2.000000
 -0.063317 -0.191645 -0.046629      4.000000
 -0.042211 -0.169019 -0.035287      4.000000
 -0.021106 -0.146393 -0.023944      4.000000
 -0.063317 -0.160704 -0.035287      2.000000
 -0.042211 -0.138077 -0.023944      4.000000
 -0.021106 -0.115451 -0.012602      4.000000
 -0.042211 -0.107136 -0.012602      2.000000
 -0.021106 -0.084510 -0.001260      4.000000
 -0.021106 -0.053568  0.010082      2.000000
  0.000000  0.000000  0.065533      2.000000
  0.021106  0.022626  0.076876      4.000000
  0.042211  0.045252  0.088218      4.000000
  0.063317  0.067878  0.099560      4.000000
  0.084422  0.090505  0.110902      4.000000
  0.105528  0.113131  0.122244      4.000000
  0.126633  0.135757  0.133587      4.000000
 -0.126633 -0.135757 -0.002520      4.000000
 -0.105528 -0.113131  0.008822      4.000000
 -0.084422 -0.090505  0.020164      4.000000
 -0.063317 -0.067878  0.031507      4.000000
 -0.042211 -0.045252  0.042849      4.000000
 -0.021106 -0.022626  0.054191      4.000000
  0.021106  0.053568  0.088218      2.000000
  0.042211  0.076194  0.099560      4.000000
  0.063317  0.098820  0.110902      4.000000
  0.084422  0.121446  0.122244      4.000000
  0.105528  0.144072  0.133587      4.000000
  0.126633  0.166699  0.144929      4.000000
 -0.126633 -0.104815  0.008822      4.000000
 -0.105528 -0.082189  0.020164      4.000000
 -0.084422 -0.059563  0.031507      4.000000
 -0.063317 -0.036937  0.042849      4.000000
 -0.042211 -0.014311  0.054191      4.000000
 -0.021106  0.008316  0.065533      4.000000
  0.042211  0.107136  0.110902      2.000000
  0.063317  0.129762  0.122244      4.000000
  0.084422  0.152388  0.133587      4.000000
  0.105528  0.175014  0.144929      4.000000
  0.126633  0.197640  0.156271      4.000000
 -0.126633 -0.073874  0.020164      4.000000
 -0.105528 -0.051247  0.031507      4.000000
 -0.084422 -0.028621  0.042849      4.000000
 -0.063317 -0.005995  0.054191      4.000000
 -0.042211  0.016631  0.065533      4.000000
 -0.021106  0.039257  0.076876      4.000000
  0.063317  0.160704  0.133587      2.000000
  0.084422  0.183330  0.144929      4.000000
  0.105528  0.205956  0.156271      4.000000
  0.126633  0.228582  0.167613      4.000000
 -0.126633 -0.042932  0.031507      4.000000
 -0.105528 -0.020306  0.042849      4.000000
 -0.084422  0.002320  0.054191      4.000000
 -0.063317  0.024947  0.065533      4.000000
 -0.042211  0.047573  0.076876      4.000000
 -0.021106  0.070199  0.088218      4.000000
  0.084422  0.214271  0.156271      2.000000
  0.105528  0.236898  0.167613      4.000000
  0.126633  0.259524  0.178956      4.000000
 -0.126633 -0.011990  0.042849      4.000000
 -0.105528  0.010636  0.054191      4.000000
 -0.084422  0.033262  0.065533      4.000000
 -0.063317  0.055888  0.076876      4.000000
 -0.042211  0.078514  0.088218      4.000000
 -0.021106  0.101141  0.099560      4.000000
  0.105528  0.267839  0.178956      2.000000
  0.126633  0.290465  0.190298      4.000000
 -0.126633  0.018951  0.054191      4.000000
 -0.105528  0.041578  0.065533      4.000000
 -0.084422  0.064204  0.076876      4.000000
 -0.063317  0.086830  0.088218      4.000000
 -0.042211  0.109456  0.099560      4.000000
 -0.021106  0.132082  0.110902      4.000000
  0.126633  0.321407  0.201640      2.000000
 -0.126633  0.049893  0.065533      4.000000
 -0.105528  0.072519  0.076876      4.000000
 -0.084422  0.095145  0.088218      4.000000
 -0.063317  0.117772  0.099560      4.000000
 -0.042211  0.140398  0.110902      4.000000
 -0.021106  0.163024  0.122244      4.000000
 -0.126633 -0.321407 -0.070573      2.000000
 -0.105528 -0.298781 -0.059231      4.000000
 -0.084422 -0.276155 -0.047889      4.000000
 -0.063317 -0.253529 -0.036547      4.000000
 -0.042211 -0.230902 -0.025205      4.000000
 -0.021106 -0.208276 -0.013862      4.000000
 -0.105528 -0.267839 -0.047889      2.000000
 -0.084422 -0.245213 -0.036547      4.000000
 -0.063317 -0.222587 -0.025205      4.000000
 -0.042211 -0.199961 -0.013862      4.000000
 -0.021106 -0.177335 -0.002520      4.000000
 -0.084422 -0.214271 -0.025205      2.000000
 -0.063317 -0.191645 -0.013862      4.000000
 -0.042211 -0.169019 -0.002520      4.000000
 -0.021106 -0.146393  0.008822      4.000000
 -0.063317 -0.160704 -0.002520      2.000000
 -0.042211 -0.138077  0.008822      4.000000
 -0.021106 -0.115451  0.020164      4.000000
 -0.042211 -0.107136  0.020164      2.000000
 -0.021106 -0.084510  0.031507      4.000000
 -0.021106 -0.053568  0.042849      2.000000
  0.000000  0.000000  0.098300      2.000000
  0.021106  0.022626  0.109642      4.000000
  0.042211  0.045252  0.120984      4.000000
  0.063317  0.067878  0.132327      4.000000
  0.084422  0.090505  0.143669      4.000000
  0.105528  0.113131  0.155011      4.000000
  0.126633  0.135757  0.166353      4.000000
 -0.126633 -0.135757  0.030247      4.000000
 -0.105528 -0.113131  0.041589      4.000000
 -0.084422 -0.090505  0.052931      4.000000
 -0.063317 -0.067878  0.064273      4.000000
 -0.042211 -0.045252  0.075616      4.000000
 -0.021106 -0.022626  0.086958      4.000000
  0.021106  0.053568  0.120984      2.000000
  0.042211  0.076194  0.132327      4.000000
  0.063317  0.098820  0.143669      4.000000
  0.084422  0.121446  0.155011      4.000000
  0.105528  0.144072  0.166353      4.000000
  0.126633  0.166699  0.177696      4.000000
 -0.126633 -0.104815  0.041589      4.000000
 -0.105528 -0.082189  0.052931      4.000000
 -0.084422 -0.059563  0.064273      4.000000
 -0.063317 -0.036937  0.075616      4.000000
 -0.042211 -0.014311  0.086958      4.000000
 -0.021106  0.008316  0.098300      4.000000
  0.042211  0.107136  0.143669      2.000000
  0.063317  0.129762  0.155011      4.000000
  0.084422  0.152388  0.166353      4.000000
  0.105528  0.175014  0.177696      4.000000
  0.126633  0.197640  0.189038      4.000000
 -0.126633 -0.073874  0.052931      4.000000
 -0.105528 -0.051247  0.064273      4.000000
 -0.084422 -0.028621  0.075616      4.000000
 -0.063317 -0.005995  0.086958      4.000000
 -0.042211  0.016631  0.098300      4.000000
 -0.021106  0.039257  0.109642      4.000000
  0.063317  0.160704  0.166353      2.000000
  0.084422  0.183330  0.177696      4.000000
  0.105528  0.205956  0.189038      4.000000
  0.126633  0.228582  0.200380      4.000000
 -0.126633 -0.042932  0.064273      4.000000
 -0.105528 -0.020306  0.075616      4.000000
 -0.084422  0.002320  0.086958      4.000000
 -0.063317  0.024947  0.098300      4.000000
 -0.042211  0.047573  0.109642      4.000000
 -0.021106  0.070199  0.120984      4.000000
  0.084422  0.214271  0.189038      2.000000
  0.105528  0.236898  0.200380      4.000000
  0.126633  0.259524  0.211722      4.000000
 -0.126633 -0.011990  0.075616      4.000000
 -0.105528  0.010636  0.086958      4.000000
 -0.084422  0.033262  0.098300      4.000000
 -0.063317  0.055888  0.109642      4.000000
 -0.042211  0.078514  0.120984      4.000000
 -0.021106  0.101141  0.132327      4.000000
  0.105528  0.267839  0.211722      2.000000
  0.126633  0.290465  0.223065      4.000000
 -0.126633  0.018951  0.086958      4.000000
 -0.105528  0.041578  0.098300      4.000000
 -0.084422  0.064204  0.109642      4.000000
 -0.063317  0.086830  0.120984      4.000000
 -0.042211  0.109456  0.132327      4.000000
 -0.021106  0.132082  0.143669      4.000000
  0.126633  0.321407  0.234407      2.000000
 -0.126633  0.049893  0.098300      4.000000
 -0.105528  0.072519  0.109642      4.000000
 -0.084422  0.095145  0.120984      4.000000
 -0.063317  0.117772  0.132327      4.000000
 -0.042211  0.140398  0.143669      4.000000
 -0.021106  0.163024  0.155011      4.000000
 -0.126633 -0.321407 -0.037807      2.000000
 -0.105528 -0.298781 -0.026465      4.000000
 -0.084422 -0.276155 -0.015122      4.000000
 -0.063317 -0.253529 -0.003780      4.000000
 -0.042211 -0.230902  0.007562      4.000000
 -0.021106 -0.208276  0.018904      4.000000
 -0.105528 -0.267839 -0.015122      2.000000
 -0.084422 -0.245213 -0.003780      4.000000
 -0.063317 -0.222587  0.007562      4.000000
 -0.042211 -0.199961  0.018904      4.000000
 -0.021106 -0.177335  0.030247      4.000000
 -0.084422 -0.214271  0.007562      2.000000
 -0.063317 -0.191645  0.018904      4.000000
 -0.042211 -0.169019  0.030247      4.000000
 -0.021106 -0.146393  0.041589      4.000000
 -0.063317 -0.160704  0.030247      2.000000
 -0.042211 -0.138077  0.041589      4.000000
 -0.021106 -0.115451  0.052931      4.000000
 -0.042211 -0.107136  0.052931      2.000000
 -0.021106 -0.084510  0.064273      4.000000
 -0.021106 -0.053568  0.075616      2.000000
  0.000000  0.000000  0.131067      2.000000
  0.021106  0.022626  0.142409      4.000000
  0.042211  0.045252  0.153751      4.000000
  0.063317  0.067878  0.165093      4.000000
  0.084422  0.090505  0.176436      4.000000
  0.105528  0.113131  0.187778      4.000000
  0.126633  0.135757  0.199120      4.000000
 -0.126633 -0.135757  0.063013      4.000000
 -0.105528 -0.113131  0.074356      4.000000
 -0.084422 -0.090505  0.085698      4.000000
 -0.063317 -0.067878  0.097040      4.000000
 -0.042211 -0.045252  0.108382      4.000000
 -0.021106 -0.022626  0.119724      4.000000
  0.021106  0.053568  0.153751      2.000000
  0.042211  0.076194  0.165093      4.000000
  0.063317  0.098820  0.176436      4.000000
  0.084422  0.121446  0.187778      4.000000
  0.105528  0.144072  0.199120      4.000000
  0.126633  0.166699  0.210462      4.000000
 -0.126633 -0.104815  0.074356      4.000000
 -0.105528 -0.082189  0.085698      4.000000
 -0.084422 -0.059563  0.097040      4.000000
 -0.063317 -0.036937  0.108382      4.000000
 -0.042211 -0.014311  0.119724      4.000000
 -0.021106  0.008316  0.131067      4.000000
  0.042211  0.107136  0.176436      2.000000
  0.063317  0.129762  0.187778      4.000000
  0.084422  0.152388  0.199120      4.000000
  0.105528  0.175014  0.210462      4.000000
  0.126633  0.197640  0.221805      4.000000
 -0.126633 -0.073874  0.085698      4.000000
 -0.105528 -0.051247  0.097040      4.000000
 -0.084422 -0.028621  0.108382      4.000000
 -0.063317 -0.005995  0.119724      4.000000
 -0.042211  0.016631  0.131067      4.000000
 -0.021106  0.039257  0.142409      4.000000
  0.063317  0.160704  0.199120      2.000000
  0.084422  0.183330  0.210462      4.000000
  0.105528  0.205956  0.221805      4.000000
  0.126633  0.228582  0.233147      4.000000
 -0.126633 -0.042932  0.097040      4.000000
 -0.105528 -0.020306  0.108382      4.000000
 -0.084422  0.002320  0.119724      4.000000
 -0.063317  0.024947  0.131067      4.000000
 -0.042211  0.047573  0.142409      4.000000
 -0.021106  0.070199  0.153751      4.000000
  0.084422  0.214271  0.221805      2.000000
  0.105528  0.236898  0.233147      4.000000
  0.126633  0.259524  0.244489      4.000000
 -0.126633 -0.011990  0.108382      4.000000
 -0.105528  0.010636  0.119724      4.000000
 -0.084422  0.033262  0.131067      4.000000
 -0.063317  0.055888  0.142409      4.000000
 -0.042211  0.078514  0.153751      4.000000
 -0.021106  0.101141  0.165093      4.000000
  0.105528  0.267839  0.244489      2.000000
  0.126633  0.290465  0.255831      4.000000
 -0.126633  0.018951  0.119724      4.000000
 -0.105528  0.041578  0.131067      4.000000
 -0.084422  0.064204  0.142409      4.000000
 -0.063317  0.086830  0.153751      4.000000
 -0.042211  0.109456  0.165093      4.000000
 -0.021106  0.132082  0.176436      4.000000
  0.126633  0.321407  0.267173      2.000000
 -0.126633  0.049893  0.131067      4.000000
 -0.105528  0.072519  0.142409      4.000000
 -0.084422  0.095145  0.153751      4.000000
 -0.063317  0.117772  0.165093      4.000000
 -0.042211  0.140398  0.176436      4.000000
 -0.021106  0.163024  0.187778      4.000000
 -0.126633 -0.321407 -0.005040      2.000000
 -0.105528 -0.298781  0.006302      4.000000
 -0.084422 -0.276155  0.017644      4.000000
 -0.063317 -0.253529  0.028987      4.000000
 -0.042211 -0.230902  0.040329      4.000000
 -0.021106 -0.208276  0.051671      4.000000
 -0.105528 -0.267839  0.017644      2.000000
 -0.084422 -0.245213  0.028987      4.000000
 -0.063317 -0.222587  0.040329      4.000000
 -0.042211 -0.199961  0.051671      4.000000
 -0.021106 -0.177335  0.063013      4.000000
 -0.084422 -0.214271  0.040329      2.000000
 -0.063317 -0.191645  0.051671      4.000000
 -0.042211 -0.169019  0.063013      4.000000
 -0.021106 -0.146393  0.074356      4.000000
 -0.063317 -0.160704  0.063013      2.000000
 -0.042211 -0.138077  0.074356      4.000000
 -0.021106 -0.115451  0.085698      4.000000
 -0.042211 -0.107136  0.085698      2.000000
 -0.021106 -0.084510  0.097040      4.000000
 -0.021106 -0.053568  0.108382      2.000000
 
 WARNING: full set of k-points will be restricted to regular points only.

 
 Subroutine IBZKPT_HF returns following result:
 ==============================================
 
 Found   1521 k-points in 1st BZ
 the following   1521 k-points will be used (e.g. in the exchange kernel)
 Following reciprocal coordinates:   # in IRBZ
  0.000000  0.000000  0.000000    0.00065746   1 t-inv F
  0.076923  0.000000  0.000000    0.00065746   2 t-inv F
  0.153846  0.000000  0.000000    0.00065746   3 t-inv F
  0.230769  0.000000  0.000000    0.00065746   4 t-inv F
  0.307692  0.000000  0.000000    0.00065746   5 t-inv F
  0.384615  0.000000  0.000000    0.00065746   6 t-inv F
  0.461538  0.000000  0.000000    0.00065746   7 t-inv F
  0.076923  0.076923  0.000000    0.00065746   8 t-inv F
  0.153846  0.076923  0.000000    0.00065746   9 t-inv F
  0.230769  0.076923  0.000000    0.00065746  10 t-inv F
  0.307692  0.076923  0.000000    0.00065746  11 t-inv F
  0.384615  0.076923  0.000000    0.00065746  12 t-inv F
  0.461538  0.076923  0.000000    0.00065746  13 t-inv F
 -0.461538  0.076923  0.000000    0.00065746  14 t-inv F
 -0.384615  0.076923  0.000000    0.00065746  15 t-inv F
 -0.307692  0.076923  0.000000    0.00065746  16 t-inv F
 -0.230769  0.076923  0.000000    0.00065746  17 t-inv F
 -0.153846  0.076923  0.000000    0.00065746  18 t-inv F
 -0.076923  0.076923  0.000000    0.00065746  19 t-inv F
  0.153846  0.153846  0.000000    0.00065746  20 t-inv F
  0.230769  0.153846  0.000000    0.00065746  21 t-inv F
  0.307692  0.153846  0.000000    0.00065746  22 t-inv F
  0.384615  0.153846  0.000000    0.00065746  23 t-inv F
  0.461538  0.153846  0.000000    0.00065746  24 t-inv F
 -0.461538  0.153846  0.000000    0.00065746  25 t-inv F
 -0.384615  0.153846  0.000000    0.00065746  26 t-inv F
 -0.307692  0.153846  0.000000    0.00065746  27 t-inv F
 -0.230769  0.153846  0.000000    0.00065746  28 t-inv F
 -0.153846  0.153846  0.000000    0.00065746  29 t-inv F
  0.230769  0.230769  0.000000    0.00065746  30 t-inv F
  0.307692  0.230769  0.000000    0.00065746  31 t-inv F
  0.384615  0.230769  0.000000    0.00065746  32 t-inv F
  0.461538  0.230769  0.000000    0.00065746  33 t-inv F
 -0.461538  0.230769  0.000000    0.00065746  34 t-inv F
 -0.384615  0.230769  0.000000    0.00065746  35 t-inv F
 -0.307692  0.230769  0.000000    0.00065746  36 t-inv F
 -0.230769  0.230769  0.000000    0.00065746  37 t-inv F
  0.307692  0.307692  0.000000    0.00065746  38 t-inv F
  0.384615  0.307692  0.000000    0.00065746  39 t-inv F
  0.461538  0.307692  0.000000    0.00065746  40 t-inv F
 -0.461538  0.307692  0.000000    0.00065746  41 t-inv F
 -0.384615  0.307692  0.000000    0.00065746  42 t-inv F
 -0.307692  0.307692  0.000000    0.00065746  43 t-inv F
  0.384615  0.384615  0.000000    0.00065746  44 t-inv F
  0.461538  0.384615  0.000000    0.00065746  45 t-inv F
 -0.461538  0.384615  0.000000    0.00065746  46 t-inv F
 -0.384615  0.384615  0.000000    0.00065746  47 t-inv F
  0.461538  0.461538  0.000000    0.00065746  48 t-inv F
 -0.461538  0.461538  0.000000    0.00065746  49 t-inv F
  0.000000  0.000000  0.111111    0.00065746  50 t-inv F
  0.076923  0.000000  0.111111    0.00065746  51 t-inv F
  0.153846  0.000000  0.111111    0.00065746  52 t-inv F
  0.230769  0.000000  0.111111    0.00065746  53 t-inv F
  0.307692  0.000000  0.111111    0.00065746  54 t-inv F
  0.384615  0.000000  0.111111    0.00065746  55 t-inv F
  0.461538  0.000000  0.111111    0.00065746  56 t-inv F
 -0.461538  0.000000  0.111111    0.00065746  57 t-inv F
 -0.384615  0.000000  0.111111    0.00065746  58 t-inv F
 -0.307692  0.000000  0.111111    0.00065746  59 t-inv F
 -0.230769  0.000000  0.111111    0.00065746  60 t-inv F
 -0.153846  0.000000  0.111111    0.00065746  61 t-inv F
 -0.076923  0.000000  0.111111    0.00065746  62 t-inv F
  0.076923  0.076923  0.111111    0.00065746  63 t-inv F
  0.153846  0.076923  0.111111    0.00065746  64 t-inv F
  0.230769  0.076923  0.111111    0.00065746  65 t-inv F
  0.307692  0.076923  0.111111    0.00065746  66 t-inv F
  0.384615  0.076923  0.111111    0.00065746  67 t-inv F
  0.461538  0.076923  0.111111    0.00065746  68 t-inv F
 -0.461538  0.076923  0.111111    0.00065746  69 t-inv F
 -0.384615  0.076923  0.111111    0.00065746  70 t-inv F
 -0.307692  0.076923  0.111111    0.00065746  71 t-inv F
 -0.230769  0.076923  0.111111    0.00065746  72 t-inv F
 -0.153846  0.076923  0.111111    0.00065746  73 t-inv F
 -0.076923  0.076923  0.111111    0.00065746  74 t-inv F
  0.153846  0.153846  0.111111    0.00065746  75 t-inv F
  0.230769  0.153846  0.111111    0.00065746  76 t-inv F
  0.307692  0.153846  0.111111    0.00065746  77 t-inv F
  0.384615  0.153846  0.111111    0.00065746  78 t-inv F
  0.461538  0.153846  0.111111    0.00065746  79 t-inv F
 -0.461538  0.153846  0.111111    0.00065746  80 t-inv F
 -0.384615  0.153846  0.111111    0.00065746  81 t-inv F
 -0.307692  0.153846  0.111111    0.00065746  82 t-inv F
 -0.230769  0.153846  0.111111    0.00065746  83 t-inv F
 -0.153846  0.153846  0.111111    0.00065746  84 t-inv F
 -0.076923  0.153846  0.111111    0.00065746  85 t-inv F
  0.230769  0.230769  0.111111    0.00065746  86 t-inv F
  0.307692  0.230769  0.111111    0.00065746  87 t-inv F
  0.384615  0.230769  0.111111    0.00065746  88 t-inv F
  0.461538  0.230769  0.111111    0.00065746  89 t-inv F
 -0.461538  0.230769  0.111111    0.00065746  90 t-inv F
 -0.384615  0.230769  0.111111    0.00065746  91 t-inv F
 -0.307692  0.230769  0.111111    0.00065746  92 t-inv F
 -0.230769  0.230769  0.111111    0.00065746  93 t-inv F
 -0.153846  0.230769  0.111111    0.00065746  94 t-inv F
 -0.076923  0.230769  0.111111    0.00065746  95 t-inv F
  0.307692  0.307692  0.111111    0.00065746  96 t-inv F
  0.384615  0.307692  0.111111    0.00065746  97 t-inv F
  0.461538  0.307692  0.111111    0.00065746  98 t-inv F
 -0.461538  0.307692  0.111111    0.00065746  99 t-inv F
 -0.384615  0.307692  0.111111    0.00065746 100 t-inv F
 -0.307692  0.307692  0.111111    0.00065746 101 t-inv F
 -0.230769  0.307692  0.111111    0.00065746 102 t-inv F
 -0.153846  0.307692  0.111111    0.00065746 103 t-inv F
 -0.076923  0.307692  0.111111    0.00065746 104 t-inv F
  0.384615  0.384615  0.111111    0.00065746 105 t-inv F
  0.461538  0.384615  0.111111    0.00065746 106 t-inv F
 -0.461538  0.384615  0.111111    0.00065746 107 t-inv F
 -0.384615  0.384615  0.111111    0.00065746 108 t-inv F
 -0.307692  0.384615  0.111111    0.00065746 109 t-inv F
 -0.230769  0.384615  0.111111    0.00065746 110 t-inv F
 -0.153846  0.384615  0.111111    0.00065746 111 t-inv F
 -0.076923  0.384615  0.111111    0.00065746 112 t-inv F
  0.461538  0.461538  0.111111    0.00065746 113 t-inv F
 -0.461538  0.461538  0.111111    0.00065746 114 t-inv F
 -0.384615  0.461538  0.111111    0.00065746 115 t-inv F
 -0.307692  0.461538  0.111111    0.00065746 116 t-inv F
 -0.230769  0.461538  0.111111    0.00065746 117 t-inv F
 -0.153846  0.461538  0.111111    0.00065746 118 t-inv F
 -0.076923  0.461538  0.111111    0.00065746 119 t-inv F
 -0.461538 -0.461538  0.111111    0.00065746 120 t-inv F
 -0.384615 -0.461538  0.111111    0.00065746 121 t-inv F
 -0.307692 -0.461538  0.111111    0.00065746 122 t-inv F
 -0.230769 -0.461538  0.111111    0.00065746 123 t-inv F
 -0.153846 -0.461538  0.111111    0.00065746 124 t-inv F
 -0.076923 -0.461538  0.111111    0.00065746 125 t-inv F
 -0.384615 -0.384615  0.111111    0.00065746 126 t-inv F
 -0.307692 -0.384615  0.111111    0.00065746 127 t-inv F
 -0.230769 -0.384615  0.111111    0.00065746 128 t-inv F
 -0.153846 -0.384615  0.111111    0.00065746 129 t-inv F
 -0.076923 -0.384615  0.111111    0.00065746 130 t-inv F
 -0.307692 -0.307692  0.111111    0.00065746 131 t-inv F
 -0.230769 -0.307692  0.111111    0.00065746 132 t-inv F
 -0.153846 -0.307692  0.111111    0.00065746 133 t-inv F
 -0.076923 -0.307692  0.111111    0.00065746 134 t-inv F
 -0.230769 -0.230769  0.111111    0.00065746 135 t-inv F
 -0.153846 -0.230769  0.111111    0.00065746 136 t-inv F
 -0.076923 -0.230769  0.111111    0.00065746 137 t-inv F
 -0.153846 -0.153846  0.111111    0.00065746 138 t-inv F
 -0.076923 -0.153846  0.111111    0.00065746 139 t-inv F
 -0.076923 -0.076923  0.111111    0.00065746 140 t-inv F
  0.000000  0.000000  0.222222    0.00065746 141 t-inv F
  0.076923  0.000000  0.222222    0.00065746 142 t-inv F
  0.153846  0.000000  0.222222    0.00065746 143 t-inv F
  0.230769  0.000000  0.222222    0.00065746 144 t-inv F
  0.307692  0.000000  0.222222    0.00065746 145 t-inv F
  0.384615  0.000000  0.222222    0.00065746 146 t-inv F
  0.461538  0.000000  0.222222    0.00065746 147 t-inv F
 -0.461538  0.000000  0.222222    0.00065746 148 t-inv F
 -0.384615  0.000000  0.222222    0.00065746 149 t-inv F
 -0.307692  0.000000  0.222222    0.00065746 150 t-inv F
 -0.230769  0.000000  0.222222    0.00065746 151 t-inv F
 -0.153846  0.000000  0.222222    0.00065746 152 t-inv F
 -0.076923  0.000000  0.222222    0.00065746 153 t-inv F
  0.076923  0.076923  0.222222    0.00065746 154 t-inv F
  0.153846  0.076923  0.222222    0.00065746 155 t-inv F
  0.230769  0.076923  0.222222    0.00065746 156 t-inv F
  0.307692  0.076923  0.222222    0.00065746 157 t-inv F
  0.384615  0.076923  0.222222    0.00065746 158 t-inv F
  0.461538  0.076923  0.222222    0.00065746 159 t-inv F
 -0.461538  0.076923  0.222222    0.00065746 160 t-inv F
 -0.384615  0.076923  0.222222    0.00065746 161 t-inv F
 -0.307692  0.076923  0.222222    0.00065746 162 t-inv F
 -0.230769  0.076923  0.222222    0.00065746 163 t-inv F
 -0.153846  0.076923  0.222222    0.00065746 164 t-inv F
 -0.076923  0.076923  0.222222    0.00065746 165 t-inv F
  0.153846  0.153846  0.222222    0.00065746 166 t-inv F
  0.230769  0.153846  0.222222    0.00065746 167 t-inv F
  0.307692  0.153846  0.222222    0.00065746 168 t-inv F
  0.384615  0.153846  0.222222    0.00065746 169 t-inv F
  0.461538  0.153846  0.222222    0.00065746 170 t-inv F
 -0.461538  0.153846  0.222222    0.00065746 171 t-inv F
 -0.384615  0.153846  0.222222    0.00065746 172 t-inv F
 -0.307692  0.153846  0.222222    0.00065746 173 t-inv F
 -0.230769  0.153846  0.222222    0.00065746 174 t-inv F
 -0.153846  0.153846  0.222222    0.00065746 175 t-inv F
 -0.076923  0.153846  0.222222    0.00065746 176 t-inv F
  0.230769  0.230769  0.222222    0.00065746 177 t-inv F
  0.307692  0.230769  0.222222    0.00065746 178 t-inv F
  0.384615  0.230769  0.222222    0.00065746 179 t-inv F
  0.461538  0.230769  0.222222    0.00065746 180 t-inv F
 -0.461538  0.230769  0.222222    0.00065746 181 t-inv F
 -0.384615  0.230769  0.222222    0.00065746 182 t-inv F
 -0.307692  0.230769  0.222222    0.00065746 183 t-inv F
 -0.230769  0.230769  0.222222    0.00065746 184 t-inv F
 -0.153846  0.230769  0.222222    0.00065746 185 t-inv F
 -0.076923  0.230769  0.222222    0.00065746 186 t-inv F
  0.307692  0.307692  0.222222    0.00065746 187 t-inv F
  0.384615  0.307692  0.222222    0.00065746 188 t-inv F
  0.461538  0.307692  0.222222    0.00065746 189 t-inv F
 -0.461538  0.307692  0.222222    0.00065746 190 t-inv F
 -0.384615  0.307692  0.222222    0.00065746 191 t-inv F
 -0.307692  0.307692  0.222222    0.00065746 192 t-inv F
 -0.230769  0.307692  0.222222    0.00065746 193 t-inv F
 -0.153846  0.307692  0.222222    0.00065746 194 t-inv F
 -0.076923  0.307692  0.222222    0.00065746 195 t-inv F
  0.384615  0.384615  0.222222    0.00065746 196 t-inv F
  0.461538  0.384615  0.222222    0.00065746 197 t-inv F
 -0.461538  0.384615  0.222222    0.00065746 198 t-inv F
 -0.384615  0.384615  0.222222    0.00065746 199 t-inv F
 -0.307692  0.384615  0.222222    0.00065746 200 t-inv F
 -0.230769  0.384615  0.222222    0.00065746 201 t-inv F
 -0.153846  0.384615  0.222222    0.00065746 202 t-inv F
 -0.076923  0.384615  0.222222    0.00065746 203 t-inv F
  0.461538  0.461538  0.222222    0.00065746 204 t-inv F
 -0.461538  0.461538  0.222222    0.00065746 205 t-inv F
 -0.384615  0.461538  0.222222    0.00065746 206 t-inv F
 -0.307692  0.461538  0.222222    0.00065746 207 t-inv F
 -0.230769  0.461538  0.222222    0.00065746 208 t-inv F
 -0.153846  0.461538  0.222222    0.00065746 209 t-inv F
 -0.076923  0.461538  0.222222    0.00065746 210 t-inv F
 -0.461538 -0.461538  0.222222    0.00065746 211 t-inv F
 -0.384615 -0.461538  0.222222    0.00065746 212 t-inv F
 -0.307692 -0.461538  0.222222    0.00065746 213 t-inv F
 -0.230769 -0.461538  0.222222    0.00065746 214 t-inv F
 -0.153846 -0.461538  0.222222    0.00065746 215 t-inv F
 -0.076923 -0.461538  0.222222    0.00065746 216 t-inv F
 -0.384615 -0.384615  0.222222    0.00065746 217 t-inv F
 -0.307692 -0.384615  0.222222    0.00065746 218 t-inv F
 -0.230769 -0.384615  0.222222    0.00065746 219 t-inv F
 -0.153846 -0.384615  0.222222    0.00065746 220 t-inv F
 -0.076923 -0.384615  0.222222    0.00065746 221 t-inv F
 -0.307692 -0.307692  0.222222    0.00065746 222 t-inv F
 -0.230769 -0.307692  0.222222    0.00065746 223 t-inv F
 -0.153846 -0.307692  0.222222    0.00065746 224 t-inv F
 -0.076923 -0.307692  0.222222    0.00065746 225 t-inv F
 -0.230769 -0.230769  0.222222    0.00065746 226 t-inv F
 -0.153846 -0.230769  0.222222    0.00065746 227 t-inv F
 -0.076923 -0.230769  0.222222    0.00065746 228 t-inv F
 -0.153846 -0.153846  0.222222    0.00065746 229 t-inv F
 -0.076923 -0.153846  0.222222    0.00065746 230 t-inv F
 -0.076923 -0.076923  0.222222    0.00065746 231 t-inv F
  0.000000  0.000000  0.333333    0.00065746 232 t-inv F
  0.076923  0.000000  0.333333    0.00065746 233 t-inv F
  0.153846  0.000000  0.333333    0.00065746 234 t-inv F
  0.230769  0.000000  0.333333    0.00065746 235 t-inv F
  0.307692  0.000000  0.333333    0.00065746 236 t-inv F
  0.384615  0.000000  0.333333    0.00065746 237 t-inv F
  0.461538  0.000000  0.333333    0.00065746 238 t-inv F
 -0.461538  0.000000  0.333333    0.00065746 239 t-inv F
 -0.384615  0.000000  0.333333    0.00065746 240 t-inv F
 -0.307692  0.000000  0.333333    0.00065746 241 t-inv F
 -0.230769  0.000000  0.333333    0.00065746 242 t-inv F
 -0.153846  0.000000  0.333333    0.00065746 243 t-inv F
 -0.076923  0.000000  0.333333    0.00065746 244 t-inv F
  0.076923  0.076923  0.333333    0.00065746 245 t-inv F
  0.153846  0.076923  0.333333    0.00065746 246 t-inv F
  0.230769  0.076923  0.333333    0.00065746 247 t-inv F
  0.307692  0.076923  0.333333    0.00065746 248 t-inv F
  0.384615  0.076923  0.333333    0.00065746 249 t-inv F
  0.461538  0.076923  0.333333    0.00065746 250 t-inv F
 -0.461538  0.076923  0.333333    0.00065746 251 t-inv F
 -0.384615  0.076923  0.333333    0.00065746 252 t-inv F
 -0.307692  0.076923  0.333333    0.00065746 253 t-inv F
 -0.230769  0.076923  0.333333    0.00065746 254 t-inv F
 -0.153846  0.076923  0.333333    0.00065746 255 t-inv F
 -0.076923  0.076923  0.333333    0.00065746 256 t-inv F
  0.153846  0.153846  0.333333    0.00065746 257 t-inv F
  0.230769  0.153846  0.333333    0.00065746 258 t-inv F
  0.307692  0.153846  0.333333    0.00065746 259 t-inv F
  0.384615  0.153846  0.333333    0.00065746 260 t-inv F
  0.461538  0.153846  0.333333    0.00065746 261 t-inv F
 -0.461538  0.153846  0.333333    0.00065746 262 t-inv F
 -0.384615  0.153846  0.333333    0.00065746 263 t-inv F
 -0.307692  0.153846  0.333333    0.00065746 264 t-inv F
 -0.230769  0.153846  0.333333    0.00065746 265 t-inv F
 -0.153846  0.153846  0.333333    0.00065746 266 t-inv F
 -0.076923  0.153846  0.333333    0.00065746 267 t-inv F
  0.230769  0.230769  0.333333    0.00065746 268 t-inv F
  0.307692  0.230769  0.333333    0.00065746 269 t-inv F
  0.384615  0.230769  0.333333    0.00065746 270 t-inv F
  0.461538  0.230769  0.333333    0.00065746 271 t-inv F
 -0.461538  0.230769  0.333333    0.00065746 272 t-inv F
 -0.384615  0.230769  0.333333    0.00065746 273 t-inv F
 -0.307692  0.230769  0.333333    0.00065746 274 t-inv F
 -0.230769  0.230769  0.333333    0.00065746 275 t-inv F
 -0.153846  0.230769  0.333333    0.00065746 276 t-inv F
 -0.076923  0.230769  0.333333    0.00065746 277 t-inv F
  0.307692  0.307692  0.333333    0.00065746 278 t-inv F
  0.384615  0.307692  0.333333    0.00065746 279 t-inv F
  0.461538  0.307692  0.333333    0.00065746 280 t-inv F
 -0.461538  0.307692  0.333333    0.00065746 281 t-inv F
 -0.384615  0.307692  0.333333    0.00065746 282 t-inv F
 -0.307692  0.307692  0.333333    0.00065746 283 t-inv F
 -0.230769  0.307692  0.333333    0.00065746 284 t-inv F
 -0.153846  0.307692  0.333333    0.00065746 285 t-inv F
 -0.076923  0.307692  0.333333    0.00065746 286 t-inv F
  0.384615  0.384615  0.333333    0.00065746 287 t-inv F
  0.461538  0.384615  0.333333    0.00065746 288 t-inv F
 -0.461538  0.384615  0.333333    0.00065746 289 t-inv F
 -0.384615  0.384615  0.333333    0.00065746 290 t-inv F
 -0.307692  0.384615  0.333333    0.00065746 291 t-inv F
 -0.230769  0.384615  0.333333    0.00065746 292 t-inv F
 -0.153846  0.384615  0.333333    0.00065746 293 t-inv F
 -0.076923  0.384615  0.333333    0.00065746 294 t-inv F
  0.461538  0.461538  0.333333    0.00065746 295 t-inv F
 -0.461538  0.461538  0.333333    0.00065746 296 t-inv F
 -0.384615  0.461538  0.333333    0.00065746 297 t-inv F
 -0.307692  0.461538  0.333333    0.00065746 298 t-inv F
 -0.230769  0.461538  0.333333    0.00065746 299 t-inv F
 -0.153846  0.461538  0.333333    0.00065746 300 t-inv F
 -0.076923  0.461538  0.333333    0.00065746 301 t-inv F
 -0.461538 -0.461538  0.333333    0.00065746 302 t-inv F
 -0.384615 -0.461538  0.333333    0.00065746 303 t-inv F
 -0.307692 -0.461538  0.333333    0.00065746 304 t-inv F
 -0.230769 -0.461538  0.333333    0.00065746 305 t-inv F
 -0.153846 -0.461538  0.333333    0.00065746 306 t-inv F
 -0.076923 -0.461538  0.333333    0.00065746 307 t-inv F
 -0.384615 -0.384615  0.333333    0.00065746 308 t-inv F
 -0.307692 -0.384615  0.333333    0.00065746 309 t-inv F
 -0.230769 -0.384615  0.333333    0.00065746 310 t-inv F
 -0.153846 -0.384615  0.333333    0.00065746 311 t-inv F
 -0.076923 -0.384615  0.333333    0.00065746 312 t-inv F
 -0.307692 -0.307692  0.333333    0.00065746 313 t-inv F
 -0.230769 -0.307692  0.333333    0.00065746 314 t-inv F
 -0.153846 -0.307692  0.333333    0.00065746 315 t-inv F
 -0.076923 -0.307692  0.333333    0.00065746 316 t-inv F
 -0.230769 -0.230769  0.333333    0.00065746 317 t-inv F
 -0.153846 -0.230769  0.333333    0.00065746 318 t-inv F
 -0.076923 -0.230769  0.333333    0.00065746 319 t-inv F
 -0.153846 -0.153846  0.333333    0.00065746 320 t-inv F
 -0.076923 -0.153846  0.333333    0.00065746 321 t-inv F
 -0.076923 -0.076923  0.333333    0.00065746 322 t-inv F
  0.000000  0.000000  0.444444    0.00065746 323 t-inv F
  0.076923  0.000000  0.444444    0.00065746 324 t-inv F
  0.153846  0.000000  0.444444    0.00065746 325 t-inv F
  0.230769  0.000000  0.444444    0.00065746 326 t-inv F
  0.307692  0.000000  0.444444    0.00065746 327 t-inv F
  0.384615  0.000000  0.444444    0.00065746 328 t-inv F
  0.461538  0.000000  0.444444    0.00065746 329 t-inv F
 -0.461538  0.000000  0.444444    0.00065746 330 t-inv F
 -0.384615  0.000000  0.444444    0.00065746 331 t-inv F
 -0.307692  0.000000  0.444444    0.00065746 332 t-inv F
 -0.230769  0.000000  0.444444    0.00065746 333 t-inv F
 -0.153846  0.000000  0.444444    0.00065746 334 t-inv F
 -0.076923  0.000000  0.444444    0.00065746 335 t-inv F
  0.076923  0.076923  0.444444    0.00065746 336 t-inv F
  0.153846  0.076923  0.444444    0.00065746 337 t-inv F
  0.230769  0.076923  0.444444    0.00065746 338 t-inv F
  0.307692  0.076923  0.444444    0.00065746 339 t-inv F
  0.384615  0.076923  0.444444    0.00065746 340 t-inv F
  0.461538  0.076923  0.444444    0.00065746 341 t-inv F
 -0.461538  0.076923  0.444444    0.00065746 342 t-inv F
 -0.384615  0.076923  0.444444    0.00065746 343 t-inv F
 -0.307692  0.076923  0.444444    0.00065746 344 t-inv F
 -0.230769  0.076923  0.444444    0.00065746 345 t-inv F
 -0.153846  0.076923  0.444444    0.00065746 346 t-inv F
 -0.076923  0.076923  0.444444    0.00065746 347 t-inv F
  0.153846  0.153846  0.444444    0.00065746 348 t-inv F
  0.230769  0.153846  0.444444    0.00065746 349 t-inv F
  0.307692  0.153846  0.444444    0.00065746 350 t-inv F
  0.384615  0.153846  0.444444    0.00065746 351 t-inv F
  0.461538  0.153846  0.444444    0.00065746 352 t-inv F
 -0.461538  0.153846  0.444444    0.00065746 353 t-inv F
 -0.384615  0.153846  0.444444    0.00065746 354 t-inv F
 -0.307692  0.153846  0.444444    0.00065746 355 t-inv F
 -0.230769  0.153846  0.444444    0.00065746 356 t-inv F
 -0.153846  0.153846  0.444444    0.00065746 357 t-inv F
 -0.076923  0.153846  0.444444    0.00065746 358 t-inv F
  0.230769  0.230769  0.444444    0.00065746 359 t-inv F
  0.307692  0.230769  0.444444    0.00065746 360 t-inv F
  0.384615  0.230769  0.444444    0.00065746 361 t-inv F
  0.461538  0.230769  0.444444    0.00065746 362 t-inv F
 -0.461538  0.230769  0.444444    0.00065746 363 t-inv F
 -0.384615  0.230769  0.444444    0.00065746 364 t-inv F
 -0.307692  0.230769  0.444444    0.00065746 365 t-inv F
 -0.230769  0.230769  0.444444    0.00065746 366 t-inv F
 -0.153846  0.230769  0.444444    0.00065746 367 t-inv F
 -0.076923  0.230769  0.444444    0.00065746 368 t-inv F
  0.307692  0.307692  0.444444    0.00065746 369 t-inv F
  0.384615  0.307692  0.444444    0.00065746 370 t-inv F
  0.461538  0.307692  0.444444    0.00065746 371 t-inv F
 -0.461538  0.307692  0.444444    0.00065746 372 t-inv F
 -0.384615  0.307692  0.444444    0.00065746 373 t-inv F
 -0.307692  0.307692  0.444444    0.00065746 374 t-inv F
 -0.230769  0.307692  0.444444    0.00065746 375 t-inv F
 -0.153846  0.307692  0.444444    0.00065746 376 t-inv F
 -0.076923  0.307692  0.444444    0.00065746 377 t-inv F
  0.384615  0.384615  0.444444    0.00065746 378 t-inv F
  0.461538  0.384615  0.444444    0.00065746 379 t-inv F
 -0.461538  0.384615  0.444444    0.00065746 380 t-inv F
 -0.384615  0.384615  0.444444    0.00065746 381 t-inv F
 -0.307692  0.384615  0.444444    0.00065746 382 t-inv F
 -0.230769  0.384615  0.444444    0.00065746 383 t-inv F
 -0.153846  0.384615  0.444444    0.00065746 384 t-inv F
 -0.076923  0.384615  0.444444    0.00065746 385 t-inv F
  0.461538  0.461538  0.444444    0.00065746 386 t-inv F
 -0.461538  0.461538  0.444444    0.00065746 387 t-inv F
 -0.384615  0.461538  0.444444    0.00065746 388 t-inv F
 -0.307692  0.461538  0.444444    0.00065746 389 t-inv F
 -0.230769  0.461538  0.444444    0.00065746 390 t-inv F
 -0.153846  0.461538  0.444444    0.00065746 391 t-inv F
 -0.076923  0.461538  0.444444    0.00065746 392 t-inv F
 -0.461538 -0.461538  0.444444    0.00065746 393 t-inv F
 -0.384615 -0.461538  0.444444    0.00065746 394 t-inv F
 -0.307692 -0.461538  0.444444    0.00065746 395 t-inv F
 -0.230769 -0.461538  0.444444    0.00065746 396 t-inv F
 -0.153846 -0.461538  0.444444    0.00065746 397 t-inv F
 -0.076923 -0.461538  0.444444    0.00065746 398 t-inv F
 -0.384615 -0.384615  0.444444    0.00065746 399 t-inv F
 -0.307692 -0.384615  0.444444    0.00065746 400 t-inv F
 -0.230769 -0.384615  0.444444    0.00065746 401 t-inv F
 -0.153846 -0.384615  0.444444    0.00065746 402 t-inv F
 -0.076923 -0.384615  0.444444    0.00065746 403 t-inv F
 -0.307692 -0.307692  0.444444    0.00065746 404 t-inv F
 -0.230769 -0.307692  0.444444    0.00065746 405 t-inv F
 -0.153846 -0.307692  0.444444    0.00065746 406 t-inv F
 -0.076923 -0.307692  0.444444    0.00065746 407 t-inv F
 -0.230769 -0.230769  0.444444    0.00065746 408 t-inv F
 -0.153846 -0.230769  0.444444    0.00065746 409 t-inv F
 -0.076923 -0.230769  0.444444    0.00065746 410 t-inv F
 -0.153846 -0.153846  0.444444    0.00065746 411 t-inv F
 -0.076923 -0.153846  0.444444    0.00065746 412 t-inv F
 -0.076923 -0.076923  0.444444    0.00065746 413 t-inv F
  0.000000 -0.076923  0.000000    0.00065746   2 t-inv F
 -0.076923 -0.000000 -0.000000    0.00065746   2 t-inv F
 -0.000000  0.076923 -0.000000    0.00065746   2 t-inv F
  0.000000 -0.153846  0.000000    0.00065746   3 t-inv F
 -0.153846 -0.000000 -0.000000    0.00065746   3 t-inv F
 -0.000000  0.153846 -0.000000    0.00065746   3 t-inv F
  0.000000 -0.230769  0.000000    0.00065746   4 t-inv F
 -0.230769 -0.000000 -0.000000    0.00065746   4 t-inv F
 -0.000000  0.230769 -0.000000    0.00065746   4 t-inv F
  0.000000 -0.307692  0.000000    0.00065746   5 t-inv F
 -0.307692 -0.000000 -0.000000    0.00065746   5 t-inv F
 -0.000000  0.307692 -0.000000    0.00065746   5 t-inv F
  0.000000 -0.384615  0.000000    0.00065746   6 t-inv F
 -0.384615 -0.000000 -0.000000    0.00065746   6 t-inv F
 -0.000000  0.384615 -0.000000    0.00065746   6 t-inv F
  0.000000 -0.461538  0.000000    0.00065746   7 t-inv F
 -0.461538 -0.000000 -0.000000    0.00065746   7 t-inv F
 -0.000000  0.461538 -0.000000    0.00065746   7 t-inv F
 -0.076923 -0.076923 -0.000000    0.00065746   8 t-inv F
 -0.076923 -0.153846 -0.000000    0.00065746   9 t-inv F
 -0.153846 -0.076923 -0.000000    0.00065746   9 t-inv F
  0.076923  0.153846  0.000000    0.00065746   9 t-inv F
 -0.076923 -0.230769 -0.000000    0.00065746  10 t-inv F
 -0.230769 -0.076923 -0.000000    0.00065746  10 t-inv F
  0.076923  0.230769  0.000000    0.00065746  10 t-inv F
 -0.076923 -0.307692 -0.000000    0.00065746  11 t-inv F
 -0.307692 -0.076923 -0.000000    0.00065746  11 t-inv F
  0.076923  0.307692  0.000000    0.00065746  11 t-inv F
 -0.076923 -0.384615 -0.000000    0.00065746  12 t-inv F
 -0.384615 -0.076923 -0.000000    0.00065746  12 t-inv F
  0.076923  0.384615  0.000000    0.00065746  12 t-inv F
 -0.076923 -0.461538 -0.000000    0.00065746  13 t-inv F
 -0.461538 -0.076923 -0.000000    0.00065746  13 t-inv F
  0.076923  0.461538  0.000000    0.00065746  13 t-inv F
 -0.076923  0.461538 -0.000000    0.00065746  14 t-inv F
  0.461538 -0.076923 -0.000000    0.00065746  14 t-inv F
  0.076923 -0.461538  0.000000    0.00065746  14 t-inv F
 -0.076923  0.384615 -0.000000    0.00065746  15 t-inv F
  0.384615 -0.076923 -0.000000    0.00065746  15 t-inv F
  0.076923 -0.384615  0.000000    0.00065746  15 t-inv F
 -0.076923  0.307692 -0.000000    0.00065746  16 t-inv F
  0.307692 -0.076923 -0.000000    0.00065746  16 t-inv F
  0.076923 -0.307692  0.000000    0.00065746  16 t-inv F
 -0.076923  0.230769 -0.000000    0.00065746  17 t-inv F
  0.230769 -0.076923 -0.000000    0.00065746  17 t-inv F
  0.076923 -0.230769  0.000000    0.00065746  17 t-inv F
 -0.076923  0.153846 -0.000000    0.00065746  18 t-inv F
  0.153846 -0.076923 -0.000000    0.00065746  18 t-inv F
  0.076923 -0.153846  0.000000    0.00065746  18 t-inv F
  0.076923 -0.076923 -0.000000    0.00065746  19 t-inv F
 -0.153846 -0.153846 -0.000000    0.00065746  20 t-inv F
 -0.153846 -0.230769 -0.000000    0.00065746  21 t-inv F
 -0.230769 -0.153846 -0.000000    0.00065746  21 t-inv F
  0.153846  0.230769  0.000000    0.00065746  21 t-inv F
 -0.153846 -0.307692 -0.000000    0.00065746  22 t-inv F
 -0.307692 -0.153846 -0.000000    0.00065746  22 t-inv F
  0.153846  0.307692  0.000000    0.00065746  22 t-inv F
 -0.153846 -0.384615 -0.000000    0.00065746  23 t-inv F
 -0.384615 -0.153846 -0.000000    0.00065746  23 t-inv F
  0.153846  0.384615  0.000000    0.00065746  23 t-inv F
 -0.153846 -0.461538 -0.000000    0.00065746  24 t-inv F
 -0.461538 -0.153846 -0.000000    0.00065746  24 t-inv F
  0.153846  0.461538  0.000000    0.00065746  24 t-inv F
 -0.153846  0.461538 -0.000000    0.00065746  25 t-inv F
  0.461538 -0.153846 -0.000000    0.00065746  25 t-inv F
  0.153846 -0.461538  0.000000    0.00065746  25 t-inv F
 -0.153846  0.384615 -0.000000    0.00065746  26 t-inv F
  0.384615 -0.153846 -0.000000    0.00065746  26 t-inv F
  0.153846 -0.384615  0.000000    0.00065746  26 t-inv F
 -0.153846  0.307692 -0.000000    0.00065746  27 t-inv F
  0.307692 -0.153846 -0.000000    0.00065746  27 t-inv F
  0.153846 -0.307692  0.000000    0.00065746  27 t-inv F
 -0.153846  0.230769 -0.000000    0.00065746  28 t-inv F
  0.230769 -0.153846 -0.000000    0.00065746  28 t-inv F
  0.153846 -0.230769  0.000000    0.00065746  28 t-inv F
  0.153846 -0.153846 -0.000000    0.00065746  29 t-inv F
 -0.230769 -0.230769 -0.000000    0.00065746  30 t-inv F
 -0.230769 -0.307692 -0.000000    0.00065746  31 t-inv F
 -0.307692 -0.230769 -0.000000    0.00065746  31 t-inv F
  0.230769  0.307692  0.000000    0.00065746  31 t-inv F
 -0.230769 -0.384615 -0.000000    0.00065746  32 t-inv F
 -0.384615 -0.230769 -0.000000    0.00065746  32 t-inv F
  0.230769  0.384615  0.000000    0.00065746  32 t-inv F
 -0.230769 -0.461538 -0.000000    0.00065746  33 t-inv F
 -0.461538 -0.230769 -0.000000    0.00065746  33 t-inv F
  0.230769  0.461538  0.000000    0.00065746  33 t-inv F
 -0.230769  0.461538 -0.000000    0.00065746  34 t-inv F
  0.461538 -0.230769 -0.000000    0.00065746  34 t-inv F
  0.230769 -0.461538  0.000000    0.00065746  34 t-inv F
 -0.230769  0.384615 -0.000000    0.00065746  35 t-inv F
  0.384615 -0.230769 -0.000000    0.00065746  35 t-inv F
  0.230769 -0.384615  0.000000    0.00065746  35 t-inv F
 -0.230769  0.307692 -0.000000    0.00065746  36 t-inv F
  0.307692 -0.230769 -0.000000    0.00065746  36 t-inv F
  0.230769 -0.307692  0.000000    0.00065746  36 t-inv F
  0.230769 -0.230769 -0.000000    0.00065746  37 t-inv F
 -0.307692 -0.307692 -0.000000    0.00065746  38 t-inv F
 -0.307692 -0.384615 -0.000000    0.00065746  39 t-inv F
 -0.384615 -0.307692 -0.000000    0.00065746  39 t-inv F
  0.307692  0.384615  0.000000    0.00065746  39 t-inv F
 -0.307692 -0.461538 -0.000000    0.00065746  40 t-inv F
 -0.461538 -0.307692 -0.000000    0.00065746  40 t-inv F
  0.307692  0.461538  0.000000    0.00065746  40 t-inv F
 -0.307692  0.461538 -0.000000    0.00065746  41 t-inv F
  0.461538 -0.307692 -0.000000    0.00065746  41 t-inv F
  0.307692 -0.461538  0.000000    0.00065746  41 t-inv F
 -0.307692  0.384615 -0.000000    0.00065746  42 t-inv F
  0.384615 -0.307692 -0.000000    0.00065746  42 t-inv F
  0.307692 -0.384615  0.000000    0.00065746  42 t-inv F
  0.307692 -0.307692 -0.000000    0.00065746  43 t-inv F
 -0.384615 -0.384615 -0.000000    0.00065746  44 t-inv F
[...]
  band No.  band energies     occupation 
      1       1.0227      2.00000
      2       1.2912      2.00000
      3       2.8460      2.00000
      4       3.1076      2.00000
      5       9.5107      0.42755
      6      18.6118      0.00000
      7      19.9940      0.00000
      8      20.1832      0.00000

 k-point   395 :      -0.3077   -0.4615    0.4444
  band No.  band energies     occupation 
      1       0.9097      2.00000
      2       1.9490      2.00000
      3       3.4849      2.00000
      4       4.4948      2.00000
      5       7.3123      2.11522
      6      16.4433      0.00000
      7      17.6387      0.00000
      8      19.0005      0.00000

 k-point   396 :      -0.2308   -0.4615    0.4444
  band No.  band energies     occupation 
      1       0.9861      2.00000
      2       2.8518      2.00000
      3       4.3943      2.00000
      4       5.2602      2.00000
      5       6.4142      2.00583
      6      13.9118      0.00000
      7      15.1771      0.00000
      8      18.0926      0.00000

 k-point   397 :      -0.1538   -0.4615    0.4444
  band No.  band energies     occupation 
      1       1.3004      2.00000
      2       3.2276      2.00000
      3       4.5619      2.00000
      4       5.5610      2.00000
      5       8.2049      2.05953
      6      11.6947      0.00000
      7      12.8730      0.00000
      8      17.4009      0.00000

 k-point   398 :      -0.0769   -0.4615    0.4444
  band No.  band energies     occupation 
      1       1.5357      2.00000
      2       2.4462      2.00000
      3       5.8654      2.00000
      4       6.8070      2.00000
      5       8.5469      2.01779
      6      10.9324      0.00000
      7      11.5087      0.00000
      8      16.5330      0.00000

 k-point   399 :      -0.3846   -0.3846    0.4444
  band No.  band energies     occupation 
      1       1.5716      2.00000
      2       1.6536      2.00000
      3       3.6651      2.00000
      4       3.6872      2.00000
      5       7.2379      2.12675
      6      16.8470      0.00000
      7      18.1517      0.00000
      8      18.4372      0.00000

 k-point   400 :      -0.3077   -0.3846    0.4444
  band No.  band energies     occupation 
      1       1.7025      2.00000
      2       2.4670      2.00000
      3       4.4678      2.00000
      4       5.0022      2.00000
      5       5.6112      2.00000
      6      14.3357      0.00000
      7      15.9291      0.00000
      8      17.3075      0.00000

 k-point   401 :      -0.2308   -0.3846    0.4444
  band No.  band energies     occupation 
      1       1.9078      2.00000
      2       3.0370      2.00000
      3       4.1126      2.00000
      4       5.6698      2.00000
      5       7.2542      2.03420
      6      11.9788      0.00000
      7      13.6689      0.00000
      8      16.5463      0.00000

 k-point   402 :      -0.1538   -0.3846    0.4444
  band No.  band energies     occupation 
      1       1.4714      2.00000
      2       2.8503      2.00000
      3       5.3016      2.00000
      4       6.8842      2.00000
      5       8.5712      1.97330
      6      10.6794      0.00000
      7      11.7136      0.00000
      8      16.0474      0.00000

 k-point   403 :      -0.0769   -0.3846    0.4444
  band No.  band energies     occupation 
      1       0.4118      2.00000
      2       3.5929      2.00000
      3       6.8365      2.00000
      4       6.9587      2.00000
      5       8.1802      2.11171
      6      10.4894      0.00000
      7      12.5702      0.00000
      8      15.3789      0.00000

 k-point   404 :      -0.3077   -0.3077    0.4444
  band No.  band energies     occupation 
      1       2.3219      2.00000
      2       2.8970      2.00000
      3       3.7068      2.00000
      4       6.3113      2.00000
      5       6.4397      2.03977
      6      11.9788      0.00000
      7      14.6150      0.00000
      8      15.6122      0.00000

 k-point   405 :      -0.2308   -0.3077    0.4444
  band No.  band energies     occupation 
      1       1.3845      2.00000
      2       3.5308      2.00000
      3       4.3962      2.00000
      4       7.4000      2.00000
      5       8.1873      1.95343
      6      10.2640      0.00000
      7      12.9128      0.00000
      8      14.7455      0.00000

 k-point   406 :      -0.1538   -0.3077    0.4444
  band No.  band energies     occupation 
      1       0.2074      2.00000
      2       4.2594      2.00000
      3       5.9369      2.00000
      4       6.8804      2.00000
      5       9.0643      1.06148
      6      11.0809      0.00000
      7      11.9003      0.00000
      8      14.4391      0.00000

 k-point   407 :      -0.0769   -0.3077    0.4444
  band No.  band energies     occupation 
      1      -0.7382      2.00000
      2       4.7936      2.00000
      3       5.6832      2.00000
      4       7.5123      2.00000
      5       8.9483      0.82644
      6      11.9542      0.00000
      7      13.5946      0.00000
      8      14.2299      0.00000

 k-point   408 :      -0.2308   -0.2308    0.4444
  band No.  band energies     occupation 
      1       0.1388      2.00000
      2       4.9652      2.00000
      3       5.1388      2.00000
      4       6.8456      2.00000
      5       9.5384      0.41323
      6      10.8936      0.00000
      7      12.5847      0.00000
      8      13.2538      0.00000

 k-point   409 :      -0.1538   -0.2308    0.4444
  band No.  band energies     occupation 
      1      -0.8805      2.00000
      2       4.8480      2.00000
      3       6.2008      2.00000
      4       6.9531      2.00000
      5       9.8044     -0.11618
      6      12.4075      0.00000
      7      12.7825      0.00000
      8      13.6919      0.00000

 k-point   410 :      -0.0769   -0.2308    0.4444
  band No.  band energies     occupation 
      1      -1.6149      2.00000
      2       3.3686      2.00000
      3       7.2770      2.00000
      4       8.1196      2.08165
      5       9.7401     -0.01163
      6      12.5545      0.00000
      7      13.4520      0.00000
      8      14.8097      0.00000

 k-point   411 :      -0.1538   -0.1538    0.4444
  band No.  band energies     occupation 
      1      -1.6869      2.00000
      2       3.3108      2.00000
      3       7.7842      2.00000
      4       8.1756      2.02418
      5       9.9957      0.00000
      6      11.6117      0.00000
      7      14.6010      0.00000
      8      14.7134      0.00000

 k-point   412 :      -0.0769   -0.1538    0.4444
  band No.  band energies     occupation 
      1      -2.1949      2.00000
      2       1.9293      2.00000
      3       8.1873      2.01250
      4       9.6096      0.17979
      5      10.9065      0.00000
      6      11.5747      0.00000
      7      13.2064      0.00000
      8      15.0491      0.00000

 k-point   413 :      -0.0769   -0.0769    0.4444
  band No.  band energies     occupation 
      1      -2.4708      2.00000
      2       0.7478      2.00000
      3       8.4463      2.03105
      4      10.5588      0.00000
      5      11.1140      0.00000
      6      12.6787      0.00000
      7      13.5922      0.00000
      8      14.0143      0.00000


--------------------------------------------------------------------------------------------------------


 soft charge-density along one line, spin component           1
         0         1         2         3         4         5         6         7         8         9
 total charge-density along one line

 pseudopotential strength for first ion, spin component:           1
 18.070  25.210  -0.000  -0.000   0.000  -0.000  -0.000   0.000
 25.210  35.174  -0.000  -0.000   0.000  -0.000  -0.000   0.000
 -0.000  -0.000   4.118   0.000   0.000   7.672   0.000   0.001
 -0.000  -0.000   0.000   4.117   0.000   0.000   7.670   0.000
  0.000   0.000   0.000   0.000   4.117   0.001   0.000   7.670
 -0.000  -0.000   7.672   0.000   0.001  14.303   0.000   0.001
 -0.000  -0.000   0.000   7.670   0.000   0.000  14.300   0.000
  0.000   0.000   0.001   0.000   7.670   0.001   0.000  14.301
 total augmentation occupancy for first ion, spin component:           1
  5.089  -1.971   0.000   0.000   0.000  -0.000  -0.000   0.000
 -1.971   1.036   0.000   0.000  -0.000   0.000   0.000  -0.000
  0.000  -0.000   2.403   0.000  -0.098  -0.545  -0.000   0.023
  0.000   0.000   0.000   2.652   0.000  -0.000  -0.604  -0.000
 -0.000  -0.000  -0.098   0.000   2.613   0.023  -0.000  -0.595
 -0.000   0.000  -0.545  -0.000   0.023   0.136   0.000  -0.006
 -0.000   0.000  -0.000  -0.604  -0.000   0.000   0.150   0.000
 -0.000  -0.000   0.023  -0.000  -0.595  -0.006   0.000   0.148


------------------------ aborting loop because EDIFF is reached ----------------------------------------





 total charge

# of ion       s       p       d       tot
------------------------------------------
    1        0.789   0.812   0.000   1.601
    2        0.789   0.812   0.000   1.601
--------------------------------------------------
tot          1.578   1.624   0.000   3.202

    CHARGE:  cpu time      0.1194: real time      0.1194
    FORLOC:  cpu time      0.0003: real time      0.0003
    FORNL :  cpu time      0.0721: real time      0.0721
    STRESS:  cpu time      0.5108: real time      0.5109
    FORCOR:  cpu time      0.0062: real time      0.0062
    FORHAR:  cpu time      0.0014: real time      0.0014
    MIXING:  cpu time      0.0002: real time      0.0002
    OFIELD:  cpu time      0.0000: real time      0.0000

  FORCE on cell =-STRESS in cart. coord.  units (eV):
  Direction    XX          YY          ZZ          XY          YZ          ZX
  --------------------------------------------------------------------------------------
  Alpha Z     4.37876     4.37876     4.37876
  Ewald     -87.55744   -90.16688   -87.07787    -1.21703    -0.00002    -0.00001
  Hartree     0.83654     0.82364     0.83891    -0.00602     0.00000     0.00000
  E(xc)     -25.40382   -25.28449   -25.42574     0.05565     0.00000     0.00000
  Local     -14.46517   -10.14836   -15.25853     2.01335    -0.00008    -0.00003
  n-local    77.27395    75.06231    77.63427    -0.88341    -0.02635     0.10210
  augment   -12.08322   -11.90108   -12.11667     0.08495     0.00001     0.00001
  Kinetic    57.74373    56.36376    57.05961     0.82993    -0.16555     0.43429
  Fock        0.00000     0.00000     0.00000     0.00000     0.00000     0.00000
  -------------------------------------------------------------------------------------
  Total      -0.03258    -0.05528    -0.02841    -0.01059    -0.00000    -0.00000
  in kB      -1.69748    -2.88039    -1.48011    -0.55171    -0.00000    -0.00000
  external pressure =       -2.02 kB  Pullay stress =        0.00 kB


 VOLUME and BASIS-vectors are now :
 -----------------------------------------------------------------------------
  energy-cutoff  :      400.00
  volume of cell :       30.75
      direct lattice vectors                 reciprocal lattice vectors
     3.645705931  0.000000000  0.000000000     0.274295299  0.294057435  0.147407605
    -2.665928315  2.486764555  0.000000000    -0.000000000  0.402128942  0.147407605
    -0.489885495 -1.243373869  3.391932310     0.000000000 -0.000000000  0.294817204

  length of vectors
     3.645705931  3.645705931  3.645705853     0.428295095  0.428295095  0.294817204


 FORCES acting on ions
    electron-ion (+dipol)            ewald-force                    non-local-force                 convergence-correction
 -----------------------------------------------------------------------------------------------
   0.243E-04 -.958E-05 0.216E-13   -.452E-04 0.178E-04 0.146E-13   0.201E-17 -.501E-17 0.391E-17   -.729E-09 0.287E-09 0.652E-16
   -.243E-04 0.958E-05 -.179E-13   0.452E-04 -.178E-04 -.148E-13   -.388E-17 0.270E-17 -.437E-17   0.729E-09 -.287E-09 -.126E-16
 -----------------------------------------------------------------------------------------------
   0.245E-13 -.107E-13 0.367E-14   0.187E-16 0.258E-15 -.174E-15   -.187E-17 -.231E-17 -.463E-18   0.668E-16 0.175E-16 0.525E-16


 POSITION                                       TOTAL-FORCE (eV/Angst)
 -----------------------------------------------------------------------------------
      1.82285      0.00000      1.69597        -0.000000      0.000000     -0.000000
      0.00000      0.00000      0.00000         0.000000     -0.000000      0.000000
 -----------------------------------------------------------------------------------
    total drift:                                0.000000     -0.000000      0.000000


--------------------------------------------------------------------------------------------------------



  FREE ENERGIE OF THE ION-ELECTRON SYSTEM (eV)
  ---------------------------------------------------
  free  energy   TOTEN  =       -10.26737447 eV

  energy  without entropy=      -10.26737447  energy(sigma->0) =      -10.26737447



--------------------------------------------------------------------------------------------------------


    POTLOK:  cpu time      0.0071: real time      0.0072


--------------------------------------------------------------------------------------------------------


 -----------------------------------------------------------------------------
|                                                                             |
|           W    W    AA    RRRRR   N    N  II  N    N   GGGG   !!!           |
|           W    W   A  A   R    R  NN   N  II  NN   N  G    G  !!!           |
|           W    W  A    A  R    R  N N  N  II  N N  N  G       !!!           |
|           W WW W  AAAAAA  RRRRR   N  N N  II  N  N N  G  GGG   !            |
|           WW  WW  A    A  R   R   N   NN  II  N   NN  G    G                |
|           W    W  A    A  R    R  N    N  II  N    N   GGGG   !!!           |
|                                                                             |
|     Changing the smearing to ISMEAR=1 (the default) for those parts of      |
|     this job that use k-points specified in line-mode.                      |
|                                                                             |
 -----------------------------------------------------------------------------




 total charge

# of ion       s       p       d       tot
------------------------------------------
    1        0.789   0.812   0.000   1.601
    2        0.789   0.812   0.000   1.601
--------------------------------------------------
tot          1.578   1.624   0.000   3.202

 -----------------------------------------------------------------------------
|                                                                             |
|           W    W    AA    RRRRR   N    N  II  N    N   GGGG   !!!           |
|           W    W   A  A   R    R  NN   N  II  NN   N  G    G  !!!           |
|           W    W  A    A  R    R  N N  N  II  N N  N  G       !!!           |
|           W WW W  AAAAAA  RRRRR   N  N N  II  N  N N  G  GGG   !            |
|           WW  WW  A    A  R   R   N   NN  II  N   NN  G    G                |
|           W    W  A    A  R    R  N    N  II  N    N   GGGG   !!!           |
|                                                                             |
|     The requested file  could not be found or opened for reading            |
|     k-point information. Automatic k-point generation is used as a          |
|     fallback, which may lead to unwanted results.                           |
|                                                                             |
 -----------------------------------------------------------------------------

 -----------------------------------------------------------------------------
|                                                                             |
|           W    W    AA    RRRRR   N    N  II  N    N   GGGG   !!!           |
|           W    W   A  A   R    R  NN   N  II  NN   N  G    G  !!!           |
|           W    W  A    A  R    R  N N  N  II  N N  N  G       !!!           |
|           W WW W  AAAAAA  RRRRR   N  N N  II  N  N N  G  GGG   !            |
|           WW  WW  A    A  R   R   N   NN  II  N   NN  G    G                |
|           W    W  A    A  R    R  N    N  II  N    N   GGGG   !!!           |
|                                                                             |
|     Your reciprocal lattice and k-lattice belong to different lattice       |
|     classes:                                                                |
|                                                                             |
|        The reciprocal lattice is body-centered tetragonal,                  |
|        whereas your k-lattice is base-centered monoclinic.                  |
|                                                                             |
|     Results are often still useful ...                                      |
|                                                                             |
 -----------------------------------------------------------------------------

 WARNING: full set of k-points will be restricted to regular points only.

 writing wavefunctions
     LOOP+:  cpu time      7.5329: real time      7.5491
 -----------------------------------------------------------------------------
|                                                                             |
|           W    W    AA    RRRRR   N    N  II  N    N   GGGG   !!!           |
|           W    W   A  A   R    R  NN   N  II  NN   N  G    G  !!!           |
|           W    W  A    A  R    R  N N  N  II  N N  N  G       !!!           |
|           W WW W  AAAAAA  RRRRR   N  N N  II  N  N N  G  GGG   !            |
|           WW  WW  A    A  R   R   N   NN  II  N   NN  G    G                |
|           W    W  A    A  R    R  N    N  II  N    N   GGGG   !!!           |
|                                                                             |
|     Tetrahedron method does not include variations of the Fermi             |
|     occupations, so forces and stress will be inaccurate. We suggest        |
|     using a different smearing scheme ISMEAR = 1 or 2 for metals in         |
|     relaxations.                                                            |
|                                                                             |
 -----------------------------------------------------------------------------

    4ORBIT:  cpu time      0.0000: real time      0.0000



 total charge

# of ion       s       p       d       tot
------------------------------------------
    1        0.789   0.812   0.000   1.601
    2        0.789   0.812   0.000   1.601
--------------------------------------------------
tot          1.578   1.624   0.000   3.202

 BZINTS: Fermi energy:    9.031319;    8.000000 electrons
         Band energy: 0.290450E+02;  BLOECHL correction:   -0.124534

 total amount of memory used by VASP MPI-rank0    62932. kBytes
=======================================================================

   base      :      30000. kBytes
   nonl-proj :      15137. kBytes
   fftplans  :        848. kBytes
   grid      :       1399. kBytes
   one-center:          6. kBytes
   wavefun   :      15542. kBytes

  
  
 General timing and accounting informations for this job:
 ========================================================
  
                  Total CPU time used (sec):        9.610
                            User time (sec):        8.483
                          System time (sec):        1.126
                         Elapsed time (sec):        9.827
  
                   Maximum memory used (kb):      168576.
                   Average memory used (kb):          N/A
  
                          Minor page faults:        56555
                          Major page faults:            1
                 Voluntary context switches:         1144
