PROCAR lm decomposed
# of k-points:  413         # of bands:    8         # of ions:    2

 k-point     1 :    0.00000000 0.00000000 0.00000000     weight = 0.00065746

band     1 # energy   -4.61969294 # occ.  2.00000000

ion      s     py     pz     px    dxy    dyz    dz2    dxz  x2-y2    tot
    1  0.197  0.000  0.000  0.000  0.000  0.000  0.000  0.000  0.000  0.197
    2  0.197  0.000  0.000  0.000  0.000  0.000  0.000  0.000  0.000  0.197
tot    0.394  0.000  0.000  0.000  0.000  0.000  0.000  0.000  0.000  0.394

band     2 # energy    6.62002211 # occ.  2.00000000

ion      s     py     pz     px    dxy    dyz    dz2    dxz  x2-y2    tot
    1  0.000  0.000  0.207  0.000  0.000  0.000  0.000  0.000  0.000  0.207
    2  0.000  0.000  0.207  0.000  0.000  0.000  0.000  0.000  0.000  0.207
tot    0.000  0.000  0.415  0.000  0.000  0.000  0.000  0.000  0.000  0.415

band     3 # energy    6.62004365 # occ.  2.00000000

ion      s     py     pz     px    dxy    dyz    dz2    dxz  x2-y2    tot
    1  0.000  0.028  0.000  0.179  0.000  0.000  0.000  0.000  0.000  0.207
    2  0.000  0.028  0.000  0.179  0.000  0.000  0.000  0.000  0.000  0.207
tot    0.000  0.056  0.000  0.359  0.000  0.000  0.000  0.000  0.000  0.415

band     4 # energy    7.10687501 # occ.  2.05610045

ion      s     py     pz     px    dxy    dyz    dz2    dxz  x2-y2    tot
    1  0.275  0.000  0.000  0.000  0.000  0.000  0.000  0.000  0.000  0.275
    2  0.275  0.000  0.000  0.000  0.000  0.000  0.000  0.000  0.000  0.275
tot    0.550  0.000  0.000  0.000  0.000  0.000  0.000  0.000  0.000  0.550

band     5 # energy   10.69374619 # occ.  0.00000000

ion      s     py     pz     px    dxy    dyz    dz2    dxz  x2-y2    tot
    1  0.000  0.000  0.000  0.000  0.000  0.000  0.000  0.000  0.000  0.000
    2  0.000  0.000  0.000  0.000  0.000  0.000  0.000  0.000  0.000  0.000
tot    0.000  0.000  0.000  0.000  0.000  0.000  0.000  0.000  0.000  0.000

band     6 # energy   16.50113075 # occ.  0.00000000

ion      s     py     pz     px    dxy    dyz    dz2    dxz  x2-y2    tot
    1  0.000  0.112  0.000  0.017  0.000  0.000  0.000  0.000  0.000  0.129
    2  0.000  0.112  0.000  0.017  0.000  0.000  0.000  0.000  0.000  0.129
tot    0.000  0.224  0.000  0.035  0.000  0.000  0.000  0.000  0.000  0.259

band     7 # energy   17.91215153 # occ.  0.00000000

ion      s     py     pz     px    dxy    dyz    dz2    dxz  x2-y2    tot
    1  0.000  0.017  0.148  0.108  0.000  0.000  0.000  0.000  0.000  0.273
    2  0.000  0.017  0.148  0.108  0.000  0.000  0.000  0.000  0.000  0.273
tot    0.000  0.035  0.295  0.216  0.000  0.000  0.000  0.000  0.000  0.546

band     8 # energy   17.91215807 # occ.  0.00000000

ion      s     py     pz     px    dxy    dyz    dz2    dxz  x2-y2    tot
    1  0.000  0.021  0.125  0.127  0.000  0.000  0.000  0.000  0.000  0.273
    2  0.000  0.021  0.125  0.127  0.000  0.000  0.000  0.000  0.000  0.273
tot    0.000  0.042  0.250  0.253  0.000  0.000  0.000  0.000  0.000  0.546


 k-point     2 :    0.07692308 0.00000000 0.00000000     weight = 0.00262985

band     1 # energy   -4.46355151 # occ.  2.00000000

ion      s     py     pz     px    dxy    dyz    dz2    dxz  x2-y2    tot
    1  0.195  0.001  0.000  0.001  0.000  0.000  0.000  0.000  0.000  0.197
    2  0.195  0.001  0.000  0.001  0.000  0.000  0.000  0.000  0.000  0.197
tot    0.390  0.002  0.000  0.002  0.000  0.000  0.000  0.000  0.000  0.394

band     2 # energy    6.06982910 # occ.  2.00000000

ion      s     py     pz     px    dxy    dyz    dz2    dxz  x2-y2    tot
    1  0.111  0.016  0.060  0.045  0.000  0.000  0.000  0.000  0.000  0.233
    2  0.111  0.016  0.060  0.045  0.000  0.000  0.000  0.000  0.000  0.233
tot    0.223  0.033  0.120  0.090  0.000  0.000  0.000  0.000  0.000  0.466

band     3 # energy    6.55066002 # occ.  2.00000000

ion      s     py     pz     px    dxy    dyz    dz2    dxz  x2-y2    tot
    1  0.000  0.013  0.100  0.086  0.000  0.000  0.000  0.000  0.000  0.200
    2  0.000  0.013  0.100  0.086  0.000  0.000  0.000  0.000  0.000  0.200
tot    0.000  0.027  0.200  0.173  0.000  0.000  0.000  0.000  0.000  0.400

band     4 # energy    7.92293639 # occ.  2.16562105

ion      s     py     pz     px    dxy    dyz    dz2    dxz  x2-y2    tot
    1  0.158  0.000  0.044  0.047  0.000  0.000  0.000  0.000  0.000  0.249
    2  0.158  0.000  0.044  0.047  0.000  0.000  0.000  0.000  0.000  0.249
tot    0.315  0.001  0.088  0.094  0.000  0.000  0.000  0.000  0.000  0.498

band     5 # energy   11.04764776 # occ.  0.00000000

ion      s     py     pz     px    dxy    dyz    dz2    dxz  x2-y2    tot
    1  0.000  0.001  0.004  0.003  0.000  0.000  0.000  0.000  0.000  0.008
    2  0.000  0.001  0.004  0.003  0.000  0.000  0.000  0.000  0.000  0.008
tot    0.000  0.001  0.008  0.007  0.000  0.000  0.000  0.000  0.000  0.015

band     6 # energy   15.52680719 # occ.  0.00000000

ion      s     py     pz     px    dxy    dyz    dz2    dxz  x2-y2    tot
    1  0.020  0.103  0.022  0.036  0.000  0.000  0.000  0.000  0.000  0.181
    2  0.020  0.103  0.022  0.036  0.000  0.000  0.000  0.000  0.000  0.181
tot    0.040  0.207  0.044  0.072  0.000  0.000  0.000  0.000  0.000  0.362

band     7 # energy   16.25800607 # occ.  0.00000000

ion      s     py     pz     px    dxy    dyz    dz2    dxz  x2-y2    tot
    1  0.009  0.178  0.001  0.020  0.000  0.000  0.000  0.000  0.000  0.208
    2  0.009  0.178  0.001  0.020  0.000  0.000  0.000  0.000  0.000  0.208
tot    0.018  0.356  0.001  0.040  0.000  0.000  0.000  0.000  0.000  0.416

band     8 # energy   17.55202959 # occ.  0.00000000

ion      s     py     pz     px    dxy    dyz    dz2    dxz  x2-y2    tot
    1  0.017  0.071  0.085  0.089  0.000  0.000  0.000  0.000  0.000  0.262
    2  0.017  0.070  0.085  0.090  0.000  0.000  0.000  0.000  0.000  0.262
tot    0.034  0.141  0.170  0.179  0.000  0.000  0.000  0.000  0.000  0.524


 k-point     3 :    0.15384615 0.00000000 0.00000000     weight = 0.00262985

band     1 # energy   -3.99608967 # occ.  2.00000000

ion      s     py     pz     px    dxy    dyz    dz2    dxz  x2-y2    tot
    1  0.191  0.003  0.001  0.003  0.000  0.000  0.000  0.000  0.000  0.198
    2  0.191  0.003  0.001  0.003  0.000  0.000  0.000  0.000  0.000  0.198
tot    0.381  0.007  0.002  0.006  0.000  0.000  0.000  0.000  0.000  0.396

band     2 # energy    5.60585471 # occ.  2.00000000

ion      s     py     pz     px    dxy    dyz    dz2    dxz  x2-y2    tot
    1  0.135  0.026  0.048  0.030  0.000  0.000  0.000  0.000  0.000  0.238
    2  0.135  0.026  0.048  0.030  0.000  0.000  0.000  0.000  0.000  0.238
tot    0.271  0.052  0.096  0.059  0.000  0.000  0.000  0.000  0.000  0.477

band     3 # energy    6.43781196 # occ.  2.00000000

ion      s     py     pz     px    dxy    dyz    dz2    dxz  x2-y2    tot
    1  0.000  0.013  0.093  0.081  0.000  0.000  0.000  0.000  0.000  0.187
    2  0.000  0.013  0.093  0.081  0.000  0.000  0.000  0.000  0.000  0.187
tot    0.000  0.025  0.187  0.162  0.000  0.000  0.000  0.000  0.000  0.374

band     4 # energy    9.13704857 # occ.  0.66445682

ion      s     py     pz     px    dxy    dyz    dz2    dxz  x2-y2    tot
    1  0.111  0.001  0.056  0.072  0.000  0.000  0.000  0.000  0.000  0.240
    2  0.111  0.001  0.056  0.072  0.000  0.000  0.000  0.000  0.000  0.240
tot    0.221  0.003  0.112  0.144  0.000  0.000  0.000  0.000  0.000  0.479

band     5 # energy   11.99050820 # occ.  0.00000000

ion      s     py     pz     px    dxy    dyz    dz2    dxz  x2-y2    tot
    1  0.000  0.001  0.011  0.010  0.000  0.000  0.000  0.000  0.000  0.022
    2  0.000  0.001  0.011  0.010  0.000  0.000  0.000  0.000  0.000  0.022
tot    0.000  0.003  0.022  0.019  0.000  0.000  0.000  0.000  0.000  0.044

band     6 # energy   13.42690444 # occ.  0.00000000

ion      s     py     pz     px    dxy    dyz    dz2    dxz  x2-y2    tot
    1  0.062  0.094  0.014  0.042  0.000  0.000  0.000  0.000  0.000  0.213
    2  0.062  0.094  0.014  0.042  0.000  0.000  0.000  0.000  0.000  0.213
tot    0.124  0.189  0.029  0.084  0.000  0.000  0.000  0.000  0.000  0.425

band     7 # energy   14.06209066 # occ.  0.00000000

ion      s     py     pz     px    dxy    dyz    dz2    dxz  x2-y2    tot
    1  0.026  0.164  0.009  0.004  0.000  0.000  0.000  0.000  0.000  0.203
    2  0.026  0.164  0.009  0.004  0.000  0.000  0.000  0.000  0.000  0.203
tot    0.052  0.328  0.017  0.009  0.000  0.000  0.000  0.000  0.000  0.406

band     8 # energy   16.33581055 # occ.  0.00000000

ion      s     py     pz     px    dxy    dyz    dz2    dxz  x2-y2    tot
    1  0.035  0.061  0.070  0.066  0.000  0.000  0.000  0.000  0.000  0.231
    2  0.035  0.061  0.070  0.066  0.000  0.000  0.000  0.000  0.000  0.231
tot    0.070  0.121  0.139  0.131  0.000  0.000  0.000  0.000  0.000  0.462


 k-point     4 :    0.23076923 0.00000000 0.00000000     weight = 0.00262985

band     1 # energy   -3.22039924 # occ.  2.00000000

ion      s     py     pz     px    dxy    dyz    dz2    dxz  x2-y2    tot
    1  0.183  0.007  0.002  0.007  0.000  0.000  0.000  0.000  0.000  0.200
    2  0.183  0.007  0.002  0.007  0.000  0.000  0.000  0.000  0.000  0.200
tot    0.367  0.015  0.004  0.014  0.000  0.000  0.000  0.000  0.000  0.399

band     2 # energy    5.41201587 # occ.  2.00000000

ion      s     py     pz     px    dxy    dyz    dz2    dxz  x2-y2    tot
    1  0.145  0.037  0.041  0.020  0.000  0.000  0.000  0.000  0.000  0.242
    2  0.145  0.037  0.041  0.020  0.000  0.000  0.000  0.000  0.000  0.242
tot    0.290  0.073  0.081  0.041  0.000  0.000  0.000  0.000  0.000  0.485

band     3 # energy    6.42556596 # occ.  2.00000000

ion      s     py     pz     px    dxy    dyz    dz2    dxz  x2-y2    tot
    1  0.000  0.012  0.089  0.077  0.000  0.000  0.000  0.000  0.000  0.178
    2  0.000  0.012  0.089  0.077  0.000  0.000  0.000  0.000  0.000  0.178
tot    0.000  0.024  0.178  0.154  0.000  0.000  0.000  0.000  0.000  0.357

band     4 # energy    9.77235819 # occ.  0.07971827

ion      s     py     pz     px    dxy    dyz    dz2    dxz  x2-y2    tot
    1  0.018  0.049  0.039  0.090  0.000  0.000  0.000  0.000  0.000  0.196
    2  0.018  0.049  0.039  0.090  0.000  0.000  0.000  0.000  0.000  0.196
tot    0.036  0.099  0.078  0.179  0.000  0.000  0.000  0.000  0.000  0.391

band     5 # energy   11.59326849 # occ.  0.00000000

ion      s     py     pz     px    dxy    dyz    dz2    dxz  x2-y2    tot
    1  0.114  0.053  0.027  0.034  0.000  0.000  0.000  0.000  0.000  0.228
    2  0.114  0.053  0.027  0.034  0.000  0.000  0.000  0.000  0.000  0.228
tot    0.228  0.106  0.054  0.068  0.000  0.000  0.000  0.000  0.000  0.457

band     6 # energy   12.22447847 # occ.  0.00000000

ion      s     py     pz     px    dxy    dyz    dz2    dxz  x2-y2    tot
    1  0.085  0.140  0.017  0.000  0.000  0.000  0.000  0.000  0.000  0.242
    2  0.085  0.140  0.017  0.000  0.000  0.000  0.000  0.000  0.000  0.242
tot    0.170  0.279  0.034  0.000  0.000  0.000  0.000  0.000  0.000  0.483

band     7 # energy   13.11566368 # occ.  0.00000000

ion      s     py     pz     px    dxy    dyz    dz2    dxz  x2-y2    tot
    1  0.000  0.003  0.025  0.022  0.000  0.000  0.000  0.000  0.000  0.050
    2  0.000  0.003  0.025  0.022  0.000  0.000  0.000  0.000  0.000  0.050
tot    0.000  0.007  0.050  0.043  0.000  0.000  0.000  0.000  0.000  0.100

band     8 # energy   14.97029984 # occ.  0.00000000

ion      s     py     pz     px    dxy    dyz    dz2    dxz  x2-y2    tot
    1  0.000  0.005  0.039  0.033  0.000  0.000  0.000  0.000  0.000  0.078
    2  0.000  0.005  0.039  0.033  0.000  0.000  0.000  0.000  0.000  0.078
tot    0.000  0.010  0.079  0.067  0.000  0.000  0.000  0.000  0.000  0.156


 k-point     5 :    0.30769231 0.00000000 0.00000000     weight = 0.00262985

band     1 # energy   -2.14239732 # occ.  2.00000000

ion      s     py     pz     px    dxy    dyz    dz2    dxz  x2-y2    tot
    1  0.174  0.012  0.003  0.011  0.000  0.000  0.000  0.000  0.000  0.202
    2  0.174  0.012  0.003  0.011  0.000  0.000  0.000  0.000  0.000  0.202
tot    0.349  0.025  0.007  0.023  0.000  0.000  0.000  0.000  0.000  0.403

band     2 # energy    5.45569178 # occ.  2.00000000

ion      s     py     pz     px    dxy    dyz    dz2    dxz  x2-y2    tot
    1  0.156  0.041  0.037  0.018  0.000  0.000  0.000  0.000  0.000  0.251
    2  0.156  0.041  0.037  0.018  0.000  0.000  0.000  0.000  0.000  0.251
tot    0.312  0.082  0.074  0.035  0.000  0.000  0.000  0.000  0.000  0.503

band     3 # energy    6.58425248 # occ.  2.00000000

ion      s     py     pz     px    dxy    dyz    dz2    dxz  x2-y2    tot
    1  0.000  0.012  0.088  0.076  0.000  0.000  0.000  0.000  0.000  0.176
    2  0.000  0.012  0.088  0.076  0.000  0.000  0.000  0.000  0.000  0.176
tot    0.000  0.024  0.176  0.153  0.000  0.000  0.000  0.000  0.000  0.353

band     4 # energy    7.72386529 # occ.  2.13551567

ion      s     py     pz     px    dxy    dyz    dz2    dxz  x2-y2    tot
    1  0.029  0.086  0.010  0.049  0.000  0.000  0.000  0.000  0.000  0.174
    2  0.029  0.086  0.010  0.049  0.000  0.000  0.000  0.000  0.000  0.174
tot    0.058  0.172  0.021  0.097  0.000  0.000  0.000  0.000  0.000  0.349

band     5 # energy   10.45474799 # occ. -0.15154362

ion      s     py     pz     px    dxy    dyz    dz2    dxz  x2-y2    tot
    1  0.062  0.143  0.008  0.006  0.000  0.000  0.000  0.000  0.000  0.219
    2  0.062  0.143  0.008  0.006  0.000  0.000  0.000  0.000  0.000  0.219
tot    0.123  0.286  0.016  0.012  0.000  0.000  0.000  0.000  0.000  0.438

band     6 # energy   12.48240259 # occ.  0.00000000

ion      s     py     pz     px    dxy    dyz    dz2    dxz  x2-y2    tot
    1  0.000  0.006  0.041  0.035  0.000  0.000  0.000  0.000  0.000  0.082
    2  0.000  0.006  0.041  0.035  0.000  0.000  0.000  0.000  0.000  0.082
tot    0.000  0.011  0.082  0.071  0.000  0.000  0.000  0.000  0.000  0.164

band     7 # energy   12.82473760 # occ.  0.00000000

ion      s     py     pz     px    dxy    dyz    dz2    dxz  x2-y2    tot
    1  0.139  0.005  0.069  0.069  0.000  0.000  0.000  0.000  0.000  0.282
    2  0.139  0.005  0.069  0.069  0.000  0.000  0.000  0.000  0.000  0.282
tot    0.278  0.010  0.137  0.139  0.000  0.000  0.000  0.000  0.000  0.564

band     8 # energy   14.42211837 # occ.  0.00000000

ion      s     py     pz     px    dxy    dyz    dz2    dxz  x2-y2    tot
    1  0.033  0.050  0.073  0.052  0.000  0.000  0.000  0.000  0.000  0.208
    2  0.033  0.050  0.073  0.052  0.000  0.000  0.000  0.000  0.000  0.208
tot    0.067  0.099  0.145  0.104  0.000  0.000  0.000  0.000  0.000  0.415


 k-point     6 :    0.38461538 0.00000000 0.00000000     weight = 0.00262985

band     1 # energy   -0.77437901 # occ.  2.00000000

ion      s     py     pz     px    dxy    dyz    dz2    dxz  x2-y2    tot
    1  0.166  0.017  0.005  0.017  0.000  0.000  0.000  0.000  0.000  0.205
    2  0.166  0.017  0.005  0.017  0.000  0.000  0.000  0.000  0.000  0.205
tot    0.332  0.035  0.010  0.033  0.000  0.000  0.000  0.000  0.000  0.410

band     2 # energy    4.92074151 # occ.  2.00000000

ion      s     py     pz     px    dxy    dyz    dz2    dxz  x2-y2    tot
    1  0.140  0.022  0.026  0.046  0.000  0.000  0.000  0.000  0.000  0.233
    2  0.140  0.022  0.026  0.046  0.000  0.000  0.000  0.000  0.000  0.233
tot    0.280  0.043  0.052  0.092  0.000  0.000  0.000  0.000  0.000  0.467

band     3 # energy    6.25690996 # occ.  2.00000000

ion      s     py     pz     px    dxy    dyz    dz2    dxz  x2-y2    tot
    1  0.053  0.121  0.012  0.004  0.000  0.000  0.000  0.000  0.000  0.190
    2  0.053  0.121  0.012  0.004  0.000  0.000  0.000  0.000  0.000  0.190
tot    0.106  0.241  0.024  0.008  0.000  0.000  0.000  0.000  0.000  0.380

band     4 # energy    6.90145630 # occ.  2.00000000

ion      s     py     pz     px    dxy    dyz    dz2    dxz  x2-y2    tot
    1  0.000  0.012  0.091  0.079  0.000  0.000  0.000  0.000  0.000  0.182
    2  0.000  0.012  0.091  0.079  0.000  0.000  0.000  0.000  0.000  0.182
tot    0.000  0.025  0.182  0.158  0.000  0.000  0.000  0.000  0.000  0.365

band     5 # energy    8.99077939 # occ.  0.98358565

ion      s     py     pz     px    dxy    dyz    dz2    dxz  x2-y2    tot
    1  0.093  0.125  0.010  0.002  0.000  0.000  0.000  0.000  0.000  0.229
    2  0.093  0.125  0.010  0.002  0.000  0.000  0.000  0.000  0.000  0.229
tot    0.186  0.249  0.019  0.004  0.000  0.000  0.000  0.000  0.000  0.459

band     6 # energy   11.17940244 # occ.  0.00000000

ion      s     py     pz     px    dxy    dyz    dz2    dxz  x2-y2    tot
    1  0.000  0.005  0.035  0.030  0.000  0.000  0.000  0.000  0.000  0.069
    2  0.000  0.005  0.035  0.030  0.000  0.000  0.000  0.000  0.000  0.069
tot    0.000  0.009  0.069  0.060  0.000  0.000  0.000  0.000  0.000  0.138

band     7 # energy   13.75267798 # occ.  0.00000000

ion      s     py     pz     px    dxy    dyz    dz2    dxz  x2-y2    tot
    1  0.078  0.056  0.080  0.045  0.000  0.000  0.000  0.000  0.000  0.259
    2  0.078  0.056  0.080  0.045  0.000  0.000  0.000  0.000  0.000  0.259
tot    0.157  0.111  0.160  0.090  0.000  0.000  0.000  0.000  0.000  0.518

band     8 # energy   14.28957365 # occ.  0.00000000

ion      s     py     pz     px    dxy    dyz    dz2    dxz  x2-y2    tot
    1  0.055  0.003  0.058  0.073  0.000  0.000  0.000  0.000  0.000  0.189
    2  0.055  0.003  0.058  0.073  0.000  0.000  0.000  0.000  0.000  0.189
tot    0.111  0.005  0.116  0.145  0.000  0.000  0.000  0.000  0.000  0.378


 k-point     7 :    0.46153846 0.00000000 0.00000000     weight = 0.00262985

band     1 # energy    0.82857680 # occ.  2.00000000

ion      s     py     pz     px    dxy    dyz    dz2    dxz  x2-y2    tot
    1  0.174  0.017  0.006  0.018  0.000  0.000  0.000  0.000  0.000  0.216
    2  0.174  0.017  0.006  0.018  0.000  0.000  0.000  0.000  0.000  0.216
tot    0.349  0.034  0.012  0.036  0.000  0.000  0.000  0.000  0.000  0.432

band     2 # energy    2.95698072 # occ.  2.00000000

ion      s     py     pz     px    dxy    dyz    dz2    dxz  x2-y2    tot
    1  0.096  0.041  0.015  0.044  0.000  0.000  0.000  0.000  0.000  0.196
    2  0.096  0.041  0.015  0.044  0.000  0.000  0.000  0.000  0.000  0.196
tot    0.192  0.081  0.030  0.089  0.000  0.000  0.000  0.000  0.000  0.392

band     3 # energy    6.72129873 # occ.  2.00000000

ion      s     py     pz     px    dxy    dyz    dz2    dxz  x2-y2    tot
    1  0.059  0.135  0.019  0.000  0.000  0.000  0.000  0.000  0.000  0.213
    2  0.059  0.135  0.019  0.000  0.000  0.000  0.000  0.000  0.000  0.213
tot    0.118  0.270  0.038  0.000  0.000  0.000  0.000  0.000  0.000  0.426

band     4 # energy    7.22854810 # occ.  2.00000000

ion      s     py     pz     px    dxy    dyz    dz2    dxz  x2-y2    tot
    1  0.000  0.013  0.098  0.085  0.000  0.000  0.000  0.000  0.000  0.196
    2  0.000  0.013  0.098  0.085  0.000  0.000  0.000  0.000  0.000  0.196
tot    0.000  0.026  0.196  0.170  0.000  0.000  0.000  0.000  0.000  0.392

band     5 # energy    7.80652961 # occ.  2.25523644

ion      s     py     pz     px    dxy    dyz    dz2    dxz  x2-y2    tot
    1  0.136  0.092  0.010  0.000  0.000  0.000  0.000  0.000  0.000  0.238
    2  0.136  0.092  0.010  0.000  0.000  0.000  0.000  0.000  0.000  0.238
tot    0.272  0.183  0.020  0.001  0.000  0.000  0.000  0.000  0.000  0.476

band     6 # energy   10.31800595 # occ.  0.00000000

ion      s     py     pz     px    dxy    dyz    dz2    dxz  x2-y2    tot
    1  0.000  0.004  0.026  0.023  0.000  0.000  0.000  0.000  0.000  0.052
    2  0.000  0.004  0.026  0.023  0.000  0.000  0.000  0.000  0.000  0.052
tot    0.000  0.007  0.052  0.045  0.000  0.000  0.000  0.000  0.000  0.104

band     7 # energy   13.53372410 # occ.  0.00000000

ion      s     py     pz     px    dxy    dyz    dz2    dxz  x2-y2    tot
    1  0.054  0.062  0.078  0.041  0.000  0.000  0.000  0.000  0.000  0.235
    2  0.054  0.062  0.078  0.041  0.000  0.000  0.000  0.000  0.000  0.235
tot    0.109  0.124  0.156  0.082  0.000  0.000  0.000  0.000  0.000  0.471

band     8 # energy   14.48766245 # occ.  0.00000000

ion      s     py     pz     px    dxy    dyz    dz2    dxz  x2-y2    tot
    1  0.053  0.000  0.035  0.041  0.000  0.000  0.000  0.000  0.000  0.129
    2  0.053  0.000  0.035  0.041  0.000  0.000  0.000  0.000  0.000  0.129
tot    0.106  0.000  0.070  0.083  0.000  0.000  0.000  0.000  0.000  0.259


 k-point     8 :    0.07692308 0.07692308 0.00000000     weight = 0.00131492

band     1 # energy   -4.06968939 # occ.  2.00000000

ion      s     py     pz     px    dxy    dyz    dz2    dxz  x2-y2    tot
    1  0.191  0.005  0.001  0.001  0.000  0.000  0.000  0.000  0.000  0.198
    2  0.191  0.005  0.001  0.001  0.000  0.000  0.000  0.000  0.000  0.198
tot    0.383  0.010  0.002  0.002  0.000  0.000  0.000  0.000  0.000  0.396

band     2 # energy    5.85438982 # occ.  2.00000000

ion      s     py     pz     px    dxy    dyz    dz2    dxz  x2-y2    tot
    1  0.101  0.005  0.118  0.001  0.000  0.000  0.000  0.000  0.000  0.225
    2  0.101  0.005  0.118  0.001  0.000  0.000  0.000  0.000  0.000  0.225
tot    0.202  0.010  0.237  0.002  0.000  0.000  0.000  0.000  0.000  0.450

band     3 # energy    7.06359073 # occ.  2.00000000

ion      s     py     pz     px    dxy    dyz    dz2    dxz  x2-y2    tot
    1  0.000  0.028  0.001  0.180  0.000  0.000  0.000  0.000  0.000  0.208
    2  0.000  0.028  0.001  0.180  0.000  0.000  0.000  0.000  0.000  0.208
tot    0.000  0.056  0.001  0.359  0.000  0.000  0.000  0.000  0.000  0.417

band     4 # energy    8.40190320 # occ.  1.89557834

ion      s     py     pz     px    dxy    dyz    dz2    dxz  x2-y2    tot
    1  0.149  0.014  0.074  0.002  0.000  0.000  0.000  0.000  0.000  0.239
    2  0.149  0.014  0.074  0.002  0.000  0.000  0.000  0.000  0.000  0.239
tot    0.298  0.028  0.148  0.005  0.000  0.000  0.000  0.000  0.000  0.478

band     5 # energy   11.62798628 # occ.  0.00000000

ion      s     py     pz     px    dxy    dyz    dz2    dxz  x2-y2    tot
    1  0.000  0.001  0.015  0.001  0.000  0.000  0.000  0.000  0.000  0.017
    2  0.000  0.001  0.015  0.001  0.000  0.000  0.000  0.000  0.000  0.017
tot    0.001  0.002  0.031  0.001  0.000  0.000  0.000  0.000  0.000  0.035

band     6 # energy   13.85924266 # occ.  0.00000000

ion      s     py     pz     px    dxy    dyz    dz2    dxz  x2-y2    tot
    1  0.069  0.117  0.001  0.038  0.000  0.000  0.000  0.000  0.000  0.224
    2  0.069  0.117  0.001  0.038  0.000  0.000  0.000  0.000  0.000  0.224
tot    0.137  0.235  0.001  0.076  0.000  0.000  0.000  0.000  0.000  0.449

band     7 # energy   13.99655594 # occ.  0.00000000

ion      s     py     pz     px    dxy    dyz    dz2    dxz  x2-y2    tot
    1  0.027  0.151  0.001  0.024  0.000  0.000  0.000  0.000  0.000  0.203
    2  0.027  0.151  0.001  0.024  0.000  0.000  0.000  0.000  0.000  0.203
tot    0.053  0.303  0.001  0.048  0.000  0.000  0.000  0.000  0.000  0.405

band     8 # energy   16.38058433 # occ.  0.00000000

ion      s     py     pz     px    dxy    dyz    dz2    dxz  x2-y2    tot
    1  0.001  0.007  0.161  0.003  0.000  0.000  0.000  0.000  0.000  0.172
    2  0.001  0.007  0.161  0.003  0.000  0.000  0.000  0.000  0.000  0.172
tot    0.002  0.013  0.321  0.007  0.000  0.000  0.000  0.000  0.000  0.343


 k-point     9 :    0.15384615 0.07692308 0.00000000     weight = 0.00262985

band     1 # energy   -3.36685400 # occ.  2.00000000

ion      s     py     pz     px    dxy    dyz    dz2    dxz  x2-y2    tot
    1  0.185  0.010  0.002  0.003  0.000  0.000  0.000  0.000  0.000  0.199
    2  0.185  0.010  0.002  0.003  0.000  0.000  0.000  0.000  0.000  0.199
tot    0.369  0.019  0.004  0.006  0.000  0.000  0.000  0.000  0.000  0.398

band     2 # energy    5.65667338 # occ.  2.00000000

ion      s     py     pz     px    dxy    dyz    dz2    dxz  x2-y2    tot
    1  0.107  0.014  0.104  0.001  0.000  0.000  0.000  0.000  0.000  0.226
    2  0.107  0.014  0.104  0.001  0.000  0.000  0.000  0.000  0.000  0.226
tot    0.215  0.027  0.209  0.001  0.000  0.000  0.000  0.000  0.000  0.452

band     3 # energy    7.31370501 # occ.  2.00000000

ion      s     py     pz     px    dxy    dyz    dz2    dxz  x2-y2    tot
    1  0.010  0.038  0.014  0.145  0.000  0.000  0.000  0.000  0.000  0.206
    2  0.010  0.038  0.014  0.145  0.000  0.000  0.000  0.000  0.000  0.206
tot    0.020  0.075  0.027  0.290  0.000  0.000  0.000  0.000  0.000  0.412

band     4 # energy    9.37645944 # occ.  0.43925670

ion      s     py     pz     px    dxy    dyz    dz2    dxz  x2-y2    tot
    1  0.071  0.027  0.061  0.056  0.000  0.000  0.000  0.000  0.000  0.216
    2  0.071  0.027  0.061  0.056  0.000  0.000  0.000  0.000  0.000  0.216
tot    0.142  0.055  0.123  0.112  0.000  0.000  0.000  0.000  0.000  0.432

band     5 # energy   11.48934584 # occ.  0.00000000

ion      s     py     pz     px    dxy    dyz    dz2    dxz  x2-y2    tot
    1  0.095  0.074  0.003  0.033  0.000  0.000  0.000  0.000  0.000  0.207
    2  0.095  0.074  0.003  0.033  0.000  0.000  0.000  0.000  0.000  0.207
tot    0.191  0.149  0.007  0.067  0.000  0.000  0.000  0.000  0.000  0.413

band     6 # energy   11.88153777 # occ.  0.00000000

ion      s     py     pz     px    dxy    dyz    dz2    dxz  x2-y2    tot
    1  0.062  0.136  0.000  0.002  0.000  0.000  0.000  0.000  0.000  0.200
    2  0.062  0.136  0.000  0.002  0.000  0.000  0.000  0.000  0.000  0.200
tot    0.123  0.272  0.000  0.004  0.000  0.000  0.000  0.000  0.000  0.399

band     7 # energy   12.85675041 # occ.  0.00000000

ion      s     py     pz     px    dxy    dyz    dz2    dxz  x2-y2    tot
    1  0.031  0.009  0.035  0.004  0.000  0.000  0.000  0.000  0.000  0.080
    2  0.031  0.009  0.035  0.004  0.000  0.000  0.000  0.000  0.000  0.080
tot    0.063  0.018  0.071  0.009  0.000  0.000  0.000  0.000  0.000  0.160

band     8 # energy   14.81934608 # occ.  0.00000000

ion      s     py     pz     px    dxy    dyz    dz2    dxz  x2-y2    tot
    1  0.000  0.003  0.085  0.023  0.000  0.000  0.000  0.000  0.000  0.112
    2  0.000  0.003  0.085  0.023  0.000  0.000  0.000  0.000  0.000  0.112
tot    0.000  0.007  0.170  0.047  0.000  0.000  0.000  0.000  0.000  0.223


 k-point    10 :    0.23076923 0.07692308 0.00000000     weight = 0.00262985

band     1 # energy   -2.36025455 # occ.  2.00000000

ion      s     py     pz     px    dxy    dyz    dz2    dxz  x2-y2    tot
    1  0.176  0.015  0.004  0.006  0.000  0.000  0.000  0.000  0.000  0.201
    2  0.176  0.015  0.004  0.006  0.000  0.000  0.000  0.000  0.000  0.201
tot    0.352  0.030  0.007  0.013  0.000  0.000  0.000  0.000  0.000  0.402

band     2 # energy    5.68002419 # occ.  2.00000000

ion      s     py     pz     px    dxy    dyz    dz2    dxz  x2-y2    tot
    1  0.116  0.020  0.094  0.002  0.000  0.000  0.000  0.000  0.000  0.232
    2  0.116  0.020  0.094  0.002  0.000  0.000  0.000  0.000  0.000  0.232
tot    0.232  0.040  0.189  0.004  0.000  0.000  0.000  0.000  0.000  0.464

band     3 # energy    7.40356045 # occ.  2.00000000

ion      s     py     pz     px    dxy    dyz    dz2    dxz  x2-y2    tot
    1  0.019  0.034  0.022  0.133  0.000  0.000  0.000  0.000  0.000  0.207
    2  0.019  0.034  0.022  0.133  0.000  0.000  0.000  0.000  0.000  0.207
tot    0.038  0.067  0.044  0.266  0.000  0.000  0.000  0.000  0.000  0.415

band     4 # energy    8.34637556 # occ.  2.03227990

ion      s     py     pz     px    dxy    dyz    dz2    dxz  x2-y2    tot
    1  0.018  0.102  0.016  0.039  0.000  0.000  0.000  0.000  0.000  0.175
    2  0.018  0.102  0.016  0.039  0.000  0.000  0.000  0.000  0.000  0.175
tot    0.037  0.203  0.032  0.079  0.000  0.000  0.000  0.000  0.000  0.351

band     5 # energy   10.08636693 # occ. -0.06643425

ion      s     py     pz     px    dxy    dyz    dz2    dxz  x2-y2    tot
    1  0.065  0.127  0.000  0.012  0.000  0.000  0.000  0.000  0.000  0.204
    2  0.065  0.127  0.000  0.012  0.000  0.000  0.000  0.000  0.000  0.204
tot    0.129  0.255  0.000  0.023  0.000  0.000  0.000  0.000  0.000  0.407

band     6 # energy   11.61472044 # occ.  0.00000000

ion      s     py     pz     px    dxy    dyz    dz2    dxz  x2-y2    tot
    1  0.153  0.004  0.045  0.052  0.000  0.000  0.000  0.000  0.000  0.254
    2  0.153  0.004  0.045  0.052  0.000  0.000  0.000  0.000  0.000  0.254
tot    0.305  0.008  0.091  0.104  0.000  0.000  0.000  0.000  0.000  0.508

band     7 # energy   12.69288930 # occ.  0.00000000

ion      s     py     pz     px    dxy    dyz    dz2    dxz  x2-y2    tot
    1  0.025  0.004  0.060  0.025  0.000  0.000  0.000  0.000  0.000  0.114
    2  0.025  0.004  0.060  0.025  0.000  0.000  0.000  0.000  0.000  0.114
tot    0.050  0.008  0.120  0.050  0.000  0.000  0.000  0.000  0.000  0.228

band     8 # energy   14.24148789 # occ.  0.00000000

ion      s     py     pz     px    dxy    dyz    dz2    dxz  x2-y2    tot
    1  0.009  0.046  0.066  0.013  0.000  0.000  0.000  0.000  0.000  0.134
    2  0.009  0.046  0.066  0.013  0.000  0.000  0.000  0.000  0.000  0.134
tot    0.019  0.092  0.132  0.026  0.000  0.000  0.000  0.000  0.000  0.268


 k-point    11 :    0.30769231 0.07692308 0.00000000     weight = 0.00262985

band     1 # energy   -1.06020302 # occ.  2.00000000

ion      s     py     pz     px    dxy    dyz    dz2    dxz  x2-y2    tot
    1  0.168  0.021  0.005  0.011  0.000  0.000  0.000  0.000  0.000  0.204
    2  0.168  0.021  0.005  0.011  0.000  0.000  0.000  0.000  0.000  0.204
tot    0.336  0.041  0.011  0.021  0.000  0.000  0.000  0.000  0.000  0.409

band     2 # energy    5.45084471 # occ.  2.00000000
