<?xml version="1.0" encoding="ISO-8859-1"?>
<modeling>
 <generator>
  <i name="program" type="string">vasp </i>
  <i name="version" type="string">6.4.2  </i>
  <i name="subversion" type="string">20Jul23 (build Oct 18 2023 12:49:41) complex                          parallel </i>
  <i name="platform" type="string">LinuxGNU </i>
  <i name="date" type="string">2025 04 10 </i>
  <i name="time" type="string">21:41:55 </i>
 </generator>
 <incar>
  <i type="string" name="SYSTEM">si-sym141</i>
  <i type="int" name="NSIM">     1</i>
  <i name="ENCUT">    400.00000000</i>
  <i type="int" name="ISMEAR">    -5</i>
  <i name="KSPACING">      0.20734500</i>
  <i type="int" name="LORBIT">    11</i>
 </incar>
 <primitive_cell>
  <structure name="primitive_cell" >
   <crystal>
    <varray name="basis" >
     <v>       3.64570593       0.00000000       0.00000000 </v>
     <v>      -2.66592831       2.48676456       0.00000000 </v>
     <v>      -0.48988549      -1.24337387       3.39193231 </v>
    </varray>
    <i name="volume">     30.75130000 </i>
    <varray name="rec_basis" >
     <v>       0.27429530       0.29405743       0.14740761 </v>
     <v>      -0.00000000       0.40212894       0.14740761 </v>
     <v>       0.00000000      -0.00000000       0.29481720 </v>
    </varray>
   </crystal>
   <varray name="positions" >
    <v>       0.75000000       0.25000000       0.50000000 </v>
    <v>       0.00000000       0.00000000       0.00000000 </v>
   </varray>
  </structure>
  <varray name="primitive_index" >
   <v type="int" >        1 </v>
   <v type="int" >        2 </v>
  </varray>
 </primitive_cell>
 <kpoints>
  <generation param="Gamma">
   <v type="int" name="divisions">      13       13        9 </v>
   <v name="usershift">      0.00000000       0.00000000       0.00000000 </v>
   <v name="genvec1">      0.07692308      -0.00000000      -0.00000000 </v>
   <v name="genvec2">      0.00000000       0.07692308      -0.00000000 </v>
   <v name="genvec3">      0.00000000       0.00000000       0.11111111 </v>
   <v name="shift">      0.00000000       0.00000000       0.00000000 </v>
  </generation>
  <varray name="kpointlist" >
   <v>       0.00000000       0.00000000       0.00000000 </v>
   <v>       0.07692308       0.00000000       0.00000000 </v>
   <v>       0.15384615       0.00000000       0.00000000 </v>
   <v>       0.23076923       0.00000000       0.00000000 </v>
   <v>       0.30769231       0.00000000       0.00000000 </v>
   <v>       0.38461538       0.00000000       0.00000000 </v>
   <v>       0.46153846       0.00000000       0.00000000 </v>
   <v>       0.07692308       0.07692308       0.00000000 </v>
   <v>       0.15384615       0.07692308       0.00000000 </v>
   <v>       0.23076923       0.07692308       0.00000000 </v>
   <v>       0.30769231       0.07692308       0.00000000 </v>
   <v>       0.38461538       0.07692308       0.00000000 </v>
   <v>       0.46153846       0.07692308       0.00000000 </v>
   <v>      -0.46153846       0.07692308       0.00000000 </v>
   <v>      -0.38461538       0.07692308       0.00000000 </v>
   <v>      -0.30769231       0.07692308       0.00000000 </v>
   <v>      -0.23076923       0.07692308       0.00000000 </v>
   <v>      -0.15384615       0.07692308       0.00000000 </v>
   <v>      -0.07692308       0.07692308       0.00000000 </v>
   <v>       0.15384615       0.15384615       0.00000000 </v>
   <v>       0.23076923       0.15384615       0.00000000 </v>
   <v>       0.30769231       0.15384615       0.00000000 </v>
   <v>       0.38461538       0.15384615       0.00000000 </v>
   <v>       0.46153846       0.15384615       0.00000000 </v>
   <v>      -0.46153846       0.15384615       0.00000000 </v>
   <v>      -0.38461538       0.15384615       0.00000000 </v>
   <v>      -0.30769231       0.15384615       0.00000000 </v>
   <v>      -0.23076923       0.15384615       0.00000000 </v>
   <v>      -0.15384615       0.15384615       0.00000000 </v>
   <v>       0.23076923       0.23076923       0.00000000 </v>
   <v>       0.30769231       0.23076923       0.00000000 </v>
   <v>       0.38461538       0.23076923       0.00000000 </v>
   <v>       0.46153846       0.23076923       0.00000000 </v>
   <v>      -0.46153846       0.23076923       0.00000000 </v>
   <v>      -0.38461538       0.23076923       0.00000000 </v>
   <v>      -0.30769231       0.23076923       0.00000000 </v>
   <v>      -0.23076923       0.23076923       0.00000000 </v>
   <v>       0.30769231       0.30769231       0.00000000 </v>
   <v>       0.38461538       0.30769231       0.00000000 </v>
   <v>       0.46153846       0.30769231       0.00000000 </v>
   <v>      -0.46153846       0.30769231       0.00000000 </v>
   <v>      -0.38461538       0.30769231       0.00000000 </v>
   <v>      -0.30769231       0.30769231       0.00000000 </v>
   <v>       0.38461538       0.38461538       0.00000000 </v>
   <v>       0.46153846       0.38461538       0.00000000 </v>
   <v>      -0.46153846       0.38461538       0.00000000 </v>
   <v>      -0.38461538       0.38461538       0.00000000 </v>
   <v>       0.46153846       0.46153846       0.00000000 </v>
   <v>      -0.46153846       0.46153846       0.00000000 </v>
   <v>       0.00000000       0.00000000       0.11111111 </v>
   <v>       0.07692308       0.00000000       0.11111111 </v>
   <v>       0.15384615       0.00000000       0.11111111 </v>
   <v>       0.23076923       0.00000000       0.11111111 </v>
   <v>       0.30769231       0.00000000       0.11111111 </v>
   <v>       0.38461538       0.00000000       0.11111111 </v>
   <v>       0.46153846       0.00000000       0.11111111 </v>
   <v>      -0.46153846       0.00000000       0.11111111 </v>
   <v>      -0.38461538       0.00000000       0.11111111 </v>
   <v>      -0.30769231       0.00000000       0.11111111 </v>
   <v>      -0.23076923       0.00000000       0.11111111 </v>
   <v>      -0.15384615       0.00000000       0.11111111 </v>
   <v>      -0.07692308       0.00000000       0.11111111 </v>
   <v>       0.07692308       0.07692308       0.11111111 </v>
   <v>       0.15384615       0.07692308       0.11111111 </v>
   <v>       0.23076923       0.07692308       0.11111111 </v>
   <v>       0.30769231       0.07692308       0.11111111 </v>
   <v>       0.38461538       0.07692308       0.11111111 </v>
   <v>       0.46153846       0.07692308       0.11111111 </v>
   <v>      -0.46153846       0.07692308       0.11111111 </v>
   <v>      -0.38461538       0.07692308       0.11111111 </v>
   <v>      -0.30769231       0.07692308       0.11111111 </v>
   <v>      -0.23076923       0.07692308       0.11111111 </v>
   <v>      -0.15384615       0.07692308       0.11111111 </v>
   <v>      -0.07692308       0.07692308       0.11111111 </v>
   <v>       0.15384615       0.15384615       0.11111111 </v>
   <v>       0.23076923       0.15384615       0.11111111 </v>
   <v>       0.30769231       0.15384615       0.11111111 </v>
   <v>       0.38461538       0.15384615       0.11111111 </v>
   <v>       0.46153846       0.15384615       0.11111111 </v>
   <v>      -0.46153846       0.15384615       0.11111111 </v>
   <v>      -0.38461538       0.15384615       0.11111111 </v>
   <v>      -0.30769231       0.15384615       0.11111111 </v>
   <v>      -0.23076923       0.15384615       0.11111111 </v>
   <v>      -0.15384615       0.15384615       0.11111111 </v>
   <v>      -0.07692308       0.15384615       0.11111111 </v>
   <v>       0.23076923       0.23076923       0.11111111 </v>
   <v>       0.30769231       0.23076923       0.11111111 </v>
   <v>       0.38461538       0.23076923       0.11111111 </v>
   <v>       0.46153846       0.23076923       0.11111111 </v>
   <v>      -0.46153846       0.23076923       0.11111111 </v>
   <v>      -0.38461538       0.23076923       0.11111111 </v>
   <v>      -0.30769231       0.23076923       0.11111111 </v>
   <v>      -0.23076923       0.23076923       0.11111111 </v>
   <v>      -0.15384615       0.23076923       0.11111111 </v>
   <v>      -0.07692308       0.23076923       0.11111111 </v>
   <v>       0.30769231       0.30769231       0.11111111 </v>
   <v>       0.38461538       0.30769231       0.11111111 </v>
   <v>       0.46153846       0.30769231       0.11111111 </v>
   <v>      -0.46153846       0.30769231       0.11111111 </v>
   <v>      -0.38461538       0.30769231       0.11111111 </v>
   <v>      -0.30769231       0.30769231       0.11111111 </v>
   <v>      -0.23076923       0.30769231       0.11111111 </v>
   <v>      -0.15384615       0.30769231       0.11111111 </v>
   <v>      -0.07692308       0.30769231       0.11111111 </v>
   <v>       0.38461538       0.38461538       0.11111111 </v>
   <v>       0.46153846       0.38461538       0.11111111 </v>
   <v>      -0.46153846       0.38461538       0.11111111 </v>
   <v>      -0.38461538       0.38461538       0.11111111 </v>
   <v>      -0.30769231       0.38461538       0.11111111 </v>
   <v>      -0.23076923       0.38461538       0.11111111 </v>
   <v>      -0.15384615       0.38461538       0.11111111 </v>
   <v>      -0.07692308       0.38461538       0.11111111 </v>
   <v>       0.46153846       0.46153846       0.11111111 </v>
   <v>      -0.46153846       0.46153846       0.11111111 </v>
   <v>      -0.38461538       0.46153846       0.11111111 </v>
   <v>      -0.30769231       0.46153846       0.11111111 </v>
   <v>      -0.23076923       0.46153846       0.11111111 </v>
   <v>      -0.15384615       0.46153846       0.11111111 </v>
   <v>      -0.07692308       0.46153846       0.11111111 </v>
   <v>      -0.46153846      -0.46153846       0.11111111 </v>
   <v>      -0.38461538      -0.46153846       0.11111111 </v>
   <v>      -0.30769231      -0.46153846       0.11111111 </v>
   <v>      -0.23076923      -0.46153846       0.11111111 </v>
   <v>      -0.15384615      -0.46153846       0.11111111 </v>
   <v>      -0.07692308      -0.46153846       0.11111111 </v>
   <v>      -0.38461538      -0.38461538       0.11111111 </v>
   <v>      -0.30769231      -0.38461538       0.11111111 </v>
   <v>      -0.23076923      -0.38461538       0.11111111 </v>
   <v>      -0.15384615      -0.38461538       0.11111111 </v>
   <v>      -0.07692308      -0.38461538       0.11111111 </v>
   <v>      -0.30769231      -0.30769231       0.11111111 </v>
   <v>      -0.23076923      -0.30769231       0.11111111 </v>
   <v>      -0.15384615      -0.30769231       0.11111111 </v>
   <v>      -0.07692308      -0.30769231       0.11111111 </v>
   <v>      -0.23076923      -0.23076923       0.11111111 </v>
   <v>      -0.15384615      -0.23076923       0.11111111 </v>
   <v>      -0.07692308      -0.23076923       0.11111111 </v>
   <v>      -0.15384615      -0.15384615       0.11111111 </v>
   <v>      -0.07692308      -0.15384615       0.11111111 </v>
   <v>      -0.07692308      -0.07692308       0.11111111 </v>
   <v>       0.00000000       0.00000000       0.22222222 </v>
   <v>       0.07692308       0.00000000       0.22222222 </v>
   <v>       0.15384615       0.00000000       0.22222222 </v>
   <v>       0.23076923       0.00000000       0.22222222 </v>
   <v>       0.30769231       0.00000000       0.22222222 </v>
   <v>       0.38461538       0.00000000       0.22222222 </v>
   <v>       0.46153846       0.00000000       0.22222222 </v>
   <v>      -0.46153846       0.00000000       0.22222222 </v>
   <v>      -0.38461538       0.00000000       0.22222222 </v>
   <v>      -0.30769231       0.00000000       0.22222222 </v>
   <v>      -0.23076923       0.00000000       0.22222222 </v>
   <v>      -0.15384615       0.00000000       0.22222222 </v>
   <v>      -0.07692308       0.00000000       0.22222222 </v>
   <v>       0.07692308       0.07692308       0.22222222 </v>
   <v>       0.15384615       0.07692308       0.22222222 </v>
   <v>       0.23076923       0.07692308       0.22222222 </v>
   <v>       0.30769231       0.07692308       0.22222222 </v>
   <v>       0.38461538       0.07692308       0.22222222 </v>
   <v>       0.46153846       0.07692308       0.22222222 </v>
   <v>      -0.46153846       0.07692308       0.22222222 </v>
   <v>      -0.38461538       0.07692308       0.22222222 </v>
   <v>      -0.30769231       0.07692308       0.22222222 </v>
   <v>      -0.23076923       0.07692308       0.22222222 </v>
   <v>      -0.15384615       0.07692308       0.22222222 </v>
   <v>      -0.07692308       0.07692308       0.22222222 </v>
   <v>       0.15384615       0.15384615       0.22222222 </v>
   <v>       0.23076923       0.15384615       0.22222222 </v>
   <v>       0.30769231       0.15384615       0.22222222 </v>
   <v>       0.38461538       0.15384615       0.22222222 </v>
   <v>       0.46153846       0.15384615       0.22222222 </v>
   <v>      -0.46153846       0.15384615       0.22222222 </v>
   <v>      -0.38461538       0.15384615       0.22222222 </v>
   <v>      -0.30769231       0.15384615       0.22222222 </v>
   <v>      -0.23076923       0.15384615       0.22222222 </v>
   <v>      -0.15384615       0.15384615       0.22222222 </v>
   <v>      -0.07692308       0.15384615       0.22222222 </v>
   <v>       0.23076923       0.23076923       0.22222222 </v>
   <v>       0.30769231       0.23076923       0.22222222 </v>
   <v>       0.38461538       0.23076923       0.22222222 </v>
   <v>       0.46153846       0.23076923       0.22222222 </v>
   <v>      -0.46153846       0.23076923       0.22222222 </v>
   <v>      -0.38461538       0.23076923       0.22222222 </v>
   <v>      -0.30769231       0.23076923       0.22222222 </v>
   <v>      -0.23076923       0.23076923       0.22222222 </v>
   <v>      -0.15384615       0.23076923       0.22222222 </v>
   <v>      -0.07692308       0.23076923       0.22222222 </v>
   <v>       0.30769231       0.30769231       0.22222222 </v>
   <v>       0.38461538       0.30769231       0.22222222 </v>
   <v>       0.46153846       0.30769231       0.22222222 </v>
   <v>      -0.46153846       0.30769231       0.22222222 </v>
   <v>      -0.38461538       0.30769231       0.22222222 </v>
   <v>      -0.30769231       0.30769231       0.22222222 </v>
   <v>      -0.23076923       0.30769231       0.22222222 </v>
   <v>      -0.15384615       0.30769231       0.22222222 </v>
   <v>      -0.07692308       0.30769231       0.22222222 </v>
   <v>       0.38461538       0.38461538       0.22222222 </v>
   <v>       0.46153846       0.38461538       0.22222222 </v>
   <v>      -0.46153846       0.38461538       0.22222222 </v>
   <v>      -0.38461538       0.38461538       0.22222222 </v>
   <v>      -0.30769231       0.38461538       0.22222222 </v>
   <v>      -0.23076923       0.38461538       0.22222222 </v>
   <v>      -0.15384615       0.38461538       0.22222222 </v>
   <v>      -0.07692308       0.38461538       0.22222222 </v>
   <v>       0.46153846       0.46153846       0.22222222 </v>
   <v>      -0.46153846       0.46153846       0.22222222 </v>
   <v>      -0.38461538       0.46153846       0.22222222 </v>
   <v>      -0.30769231       0.46153846       0.22222222 </v>
   <v>      -0.23076923       0.46153846       0.22222222 </v>
   <v>      -0.15384615       0.46153846       0.22222222 </v>
   <v>      -0.07692308       0.46153846       0.22222222 </v>
   <v>      -0.46153846      -0.46153846       0.22222222 </v>
   <v>      -0.38461538      -0.46153846       0.22222222 </v>
   <v>      -0.30769231      -0.46153846       0.22222222 </v>
   <v>      -0.23076923      -0.46153846       0.22222222 </v>
   <v>      -0.15384615      -0.46153846       0.22222222 </v>
   <v>      -0.07692308      -0.46153846       0.22222222 </v>
   <v>      -0.38461538      -0.38461538       0.22222222 </v>
   <v>      -0.30769231      -0.38461538       0.22222222 </v>
   <v>      -0.23076923      -0.38461538       0.22222222 </v>
   <v>      -0.15384615      -0.38461538       0.22222222 </v>
   <v>      -0.07692308      -0.38461538       0.22222222 </v>
   <v>      -0.30769231      -0.30769231       0.22222222 </v>
   <v>      -0.23076923      -0.30769231       0.22222222 </v>
   <v>      -0.15384615      -0.30769231       0.22222222 </v>
   <v>      -0.07692308      -0.30769231       0.22222222 </v>
   <v>      -0.23076923      -0.23076923       0.22222222 </v>
   <v>      -0.15384615      -0.23076923       0.22222222 </v>
   <v>      -0.07692308      -0.23076923       0.22222222 </v>
   <v>      -0.15384615      -0.15384615       0.22222222 </v>
   <v>      -0.07692308      -0.15384615       0.22222222 </v>
   <v>      -0.07692308      -0.07692308       0.22222222 </v>
   <v>       0.00000000       0.00000000       0.33333333 </v>
   <v>       0.07692308       0.00000000       0.33333333 </v>
   <v>       0.15384615       0.00000000       0.33333333 </v>
   <v>       0.23076923       0.00000000       0.33333333 </v>
   <v>       0.30769231       0.00000000       0.33333333 </v>
   <v>       0.38461538       0.00000000       0.33333333 </v>
   <v>       0.46153846       0.00000000       0.33333333 </v>
   <v>      -0.46153846       0.00000000       0.33333333 </v>
   <v>      -0.38461538       0.00000000       0.33333333 </v>
   <v>      -0.30769231       0.00000000       0.33333333 </v>
   <v>      -0.23076923       0.00000000       0.33333333 </v>
   <v>      -0.15384615       0.00000000       0.33333333 </v>
   <v>      -0.07692308       0.00000000       0.33333333 </v>
   <v>       0.07692308       0.07692308       0.33333333 </v>
   <v>       0.15384615       0.07692308       0.33333333 </v>
   <v>       0.23076923       0.07692308       0.33333333 </v>
   <v>       0.30769231       0.07692308       0.33333333 </v>
   <v>       0.38461538       0.07692308       0.33333333 </v>
   <v>       0.46153846       0.07692308       0.33333333 </v>
   <v>      -0.46153846       0.07692308       0.33333333 </v>
   <v>      -0.38461538       0.07692308       0.33333333 </v>
   <v>      -0.30769231       0.07692308       0.33333333 </v>
   <v>      -0.23076923       0.07692308       0.33333333 </v>
   <v>      -0.15384615       0.07692308       0.33333333 </v>
   <v>      -0.07692308       0.07692308       0.33333333 </v>
   <v>       0.15384615       0.15384615       0.33333333 </v>
   <v>       0.23076923       0.15384615       0.33333333 </v>
   <v>       0.30769231       0.15384615       0.33333333 </v>
   <v>       0.38461538       0.15384615       0.33333333 </v>
   <v>       0.46153846       0.15384615       0.33333333 </v>
   <v>      -0.46153846       0.15384615       0.33333333 </v>
   <v>      -0.38461538       0.15384615       0.33333333 </v>
   <v>      -0.30769231       0.15384615       0.33333333 </v>
   <v>      -0.23076923       0.15384615       0.33333333 </v>
   <v>      -0.15384615       0.15384615       0.33333333 </v>
   <v>      -0.07692308       0.15384615       0.33333333 </v>
   <v>       0.23076923       0.23076923       0.33333333 </v>
   <v>       0.30769231       0.23076923       0.33333333 </v>
   <v>       0.38461538       0.23076923       0.33333333 </v>
   <v>       0.46153846       0.23076923       0.33333333 </v>
   <v>      -0.46153846       0.23076923       0.33333333 </v>
   <v>      -0.38461538       0.23076923       0.33333333 </v>
   <v>      -0.30769231       0.23076923       0.33333333 </v>
   <v>      -0.23076923       0.23076923       0.33333333 </v>
   <v>      -0.15384615       0.23076923       0.33333333 </v>
   <v>      -0.07692308       0.23076923       0.33333333 </v>
   <v>       0.30769231       0.30769231       0.33333333 </v>
   <v>       0.38461538       0.30769231       0.33333333 </v>
   <v>       0.46153846       0.30769231       0.33333333 </v>
   <v>      -0.46153846       0.30769231       0.33333333 </v>
   <v>      -0.38461538       0.30769231       0.33333333 </v>
   <v>      -0.30769231       0.30769231       0.33333333 </v>
   <v>      -0.23076923       0.30769231       0.33333333 </v>
   <v>      -0.15384615       0.30769231       0.33333333 </v>
   <v>      -0.07692308       0.30769231       0.33333333 </v>
   <v>       0.38461538       0.38461538       0.33333333 </v>
   <v>       0.46153846       0.38461538       0.33333333 </v>
   <v>      -0.46153846       0.38461538       0.33333333 </v>
   <v>      -0.38461538       0.38461538       0.33333333 </v>
   <v>      -0.30769231       0.38461538       0.33333333 </v>
   <v>      -0.23076923       0.38461538       0.33333333 </v>
   <v>      -0.15384615       0.38461538       0.33333333 </v>
   <v>      -0.07692308       0.38461538       0.33333333 </v>
   <v>       0.46153846       0.46153846       0.33333333 </v>
   <v>      -0.46153846       0.46153846       0.33333333 </v>
   <v>      -0.38461538       0.46153846       0.33333333 </v>
   <v>      -0.30769231       0.46153846       0.33333333 </v>
   <v>      -0.23076923       0.46153846       0.33333333 </v>
   <v>      -0.15384615       0.46153846       0.33333333 </v>
   <v>      -0.07692308       0.46153846       0.33333333 </v>
   <v>      -0.46153846      -0.46153846       0.33333333 </v>
   <v>      -0.38461538      -0.46153846       0.33333333 </v>
   <v>      -0.30769231      -0.46153846       0.33333333 </v>
   <v>      -0.23076923      -0.46153846       0.33333333 </v>
   <v>      -0.15384615      -0.46153846       0.33333333 </v>
   <v>      -0.07692308      -0.46153846       0.33333333 </v>
   <v>      -0.38461538      -0.38461538       0.33333333 </v>
   <v>      -0.30769231      -0.38461538       0.33333333 </v>
   <v>      -0.23076923      -0.38461538       0.33333333 </v>
   <v>      -0.15384615      -0.38461538       0.33333333 </v>
   <v>      -0.07692308      -0.38461538       0.33333333 </v>
   <v>      -0.30769231      -0.30769231       0.33333333 </v>
   <v>      -0.23076923      -0.30769231       0.33333333 </v>
   <v>      -0.15384615      -0.30769231       0.33333333 </v>
   <v>      -0.07692308      -0.30769231       0.33333333 </v>
   <v>      -0.23076923      -0.23076923       0.33333333 </v>
   <v>      -0.15384615      -0.23076923       0.33333333 </v>
   <v>      -0.07692308      -0.23076923       0.33333333 </v>
   <v>      -0.15384615      -0.15384615       0.33333333 </v>
   <v>      -0.07692308      -0.15384615       0.33333333 </v>
   <v>      -0.07692308      -0.07692308       0.33333333 </v>
   <v>       0.00000000       0.00000000       0.44444444 </v>
   <v>       0.07692308       0.00000000       0.44444444 </v>
   <v>       0.15384615       0.00000000       0.44444444 </v>
   <v>       0.23076923       0.00000000       0.44444444 </v>
   <v>       0.30769231       0.00000000       0.44444444 </v>
   <v>       0.38461538       0.00000000       0.44444444 </v>
   <v>       0.46153846       0.00000000       0.44444444 </v>
   <v>      -0.46153846       0.00000000       0.44444444 </v>
   <v>      -0.38461538       0.00000000       0.44444444 </v>
   <v>      -0.30769231       0.00000000       0.44444444 </v>
   <v>      -0.23076923       0.00000000       0.44444444 </v>
   <v>      -0.15384615       0.00000000       0.44444444 </v>
   <v>      -0.07692308       0.00000000       0.44444444 </v>
   <v>       0.07692308       0.07692308       0.44444444 </v>
   <v>       0.15384615       0.07692308       0.44444444 </v>
   <v>       0.23076923       0.07692308       0.44444444 </v>
   <v>       0.30769231       0.07692308       0.44444444 </v>
   <v>       0.38461538       0.07692308       0.44444444 </v>
   <v>       0.46153846       0.07692308       0.44444444 </v>
   <v>      -0.46153846       0.07692308       0.44444444 </v>
   <v>      -0.38461538       0.07692308       0.44444444 </v>
   <v>      -0.30769231       0.07692308       0.44444444 </v>
   <v>      -0.23076923       0.07692308       0.44444444 </v>
   <v>      -0.15384615       0.07692308       0.44444444 </v>
   <v>      -0.07692308       0.07692308       0.44444444 </v>
   <v>       0.15384615       0.15384615       0.44444444 </v>
   <v>       0.23076923       0.15384615       0.44444444 </v>
   <v>       0.30769231       0.15384615       0.44444444 </v>
   <v>       0.38461538       0.15384615       0.44444444 </v>
   <v>       0.46153846       0.15384615       0.44444444 </v>
   <v>      -0.46153846       0.15384615       0.44444444 </v>
   <v>      -0.38461538       0.15384615       0.44444444 </v>
   <v>      -0.30769231       0.15384615       0.44444444 </v>
   <v>      -0.23076923       0.15384615       0.44444444 </v>
   <v>      -0.15384615       0.15384615       0.44444444 </v>
   <v>      -0.07692308       0.15384615       0.44444444 </v>
   <v>       0.23076923       0.23076923       0.44444444 </v>
   <v>       0.30769231       0.23076923       0.44444444 </v>
   <v>       0.38461538       0.23076923       0.44444444 </v>
   <v>       0.46153846       0.23076923       0.44444444 </v>
   <v>      -0.46153846       0.23076923       0.44444444 </v>
   <v>      -0.38461538       0.23076923       0.44444444 </v>
   <v>      -0.30769231       0.23076923       0.44444444 </v>
   <v>      -0.23076923       0.23076923       0.44444444 </v>
   <v>      -0.15384615       0.23076923       0.44444444 </v>
   <v>      -0.07692308       0.23076923       0.44444444 </v>
   <v>       0.30769231       0.30769231       0.44444444 </v>
   <v>       0.38461538       0.30769231       0.44444444 </v>
   <v>       0.46153846       0.30769231       0.44444444 </v>
   <v>      -0.46153846       0.30769231       0.44444444 </v>
   <v>      -0.38461538       0.30769231       0.44444444 </v>
   <v>      -0.30769231       0.30769231       0.44444444 </v>
   <v>      -0.23076923       0.30769231       0.44444444 </v>
   <v>      -0.15384615       0.30769231       0.44444444 </v>
   <v>      -0.07692308       0.30769231       0.44444444 </v>
   <v>       0.38461538       0.38461538       0.44444444 </v>
   <v>       0.46153846       0.38461538       0.44444444 </v>
   <v>      -0.46153846       0.38461538       0.44444444 </v>
   <v>      -0.38461538       0.38461538       0.44444444 </v>
   <v>      -0.30769231       0.38461538       0.44444444 </v>
   <v>      -0.23076923       0.38461538       0.44444444 </v>
   <v>      -0.15384615       0.38461538       0.44444444 </v>
   <v>      -0.07692308       0.38461538       0.44444444 </v>
   <v>       0.46153846       0.46153846       0.44444444 </v>
   <v>      -0.46153846       0.46153846       0.44444444 </v>
   <v>      -0.38461538       0.46153846       0.44444444 </v>
   <v>      -0.30769231       0.46153846       0.44444444 </v>
   <v>      -0.23076923       0.46153846       0.44444444 </v>
   <v>      -0.15384615       0.46153846       0.44444444 </v>
   <v>      -0.07692308       0.46153846       0.44444444 </v>
   <v>      -0.46153846      -0.46153846       0.44444444 </v>
   <v>      -0.38461538      -0.46153846       0.44444444 </v>
   <v>      -0.30769231      -0.46153846       0.44444444 </v>
   <v>      -0.23076923      -0.46153846       0.44444444 </v>
   <v>      -0.15384615      -0.46153846       0.44444444 </v>
   <v>      -0.07692308      -0.46153846       0.44444444 </v>
   <v>      -0.38461538      -0.38461538       0.44444444 </v>
   <v>      -0.30769231      -0.38461538       0.44444444 </v>
   <v>      -0.23076923      -0.38461538       0.44444444 </v>
   <v>      -0.15384615      -0.38461538       0.44444444 </v>
   <v>      -0.07692308      -0.38461538       0.44444444 </v>
   <v>      -0.30769231      -0.30769231       0.44444444 </v>
   <v>      -0.23076923      -0.30769231       0.44444444 </v>
   <v>      -0.15384615      -0.30769231       0.44444444 </v>
   <v>      -0.07692308      -0.30769231       0.44444444 </v>
   <v>      -0.23076923      -0.23076923       0.44444444 </v>
   <v>      -0.15384615      -0.23076923       0.44444444 </v>
   <v>      -0.07692308      -0.23076923       0.44444444 </v>
   <v>      -0.15384615      -0.15384615       0.44444444 </v>
   <v>      -0.07692308      -0.15384615       0.44444444 </v>
   <v>      -0.07692308      -0.07692308       0.44444444 </v>
  </varray>
  <varray name="weights" >
   <v>       0.00065746 </v>
   <v>       0.00262985 </v>
   <v>       0.00262985 </v>
   <v>       0.00262985 </v>
   <v>       0.00262985 </v>
   <v>       0.00262985 </v>
   <v>       0.00262985 </v>
   <v>       0.00131492 </v>
   <v>       0.00262985 </v>
   <v>       0.00262985 </v>
   <v>       0.00262985 </v>
   <v>       0.00262985 </v>
   <v>       0.00262985 </v>
   <v>       0.00262985 </v>
   <v>       0.00262985 </v>
   <v>       0.00262985 </v>
   <v>       0.00262985 </v>
   <v>       0.00262985 </v>
   <v>       0.00131492 </v>
   <v>       0.00131492 </v>
   <v>       0.00262985 </v>
   <v>       0.00262985 </v>
   <v>       0.00262985 </v>
   <v>       0.00262985 </v>
   <v>       0.00262985 </v>
   <v>       0.00262985 </v>
   <v>       0.00262985 </v>
   <v>       0.00262985 </v>
   <v>       0.00131492 </v>
   <v>       0.00131492 </v>
   <v>       0.00262985 </v>
   <v>       0.00262985 </v>
   <v>       0.00262985 </v>
   <v>       0.00262985 </v>
   <v>       0.00262985 </v>
   <v>       0.00262985 </v>
   <v>       0.00131492 </v>
   <v>       0.00131492 </v>
   <v>       0.00262985 </v>
   <v>       0.00262985 </v>
   <v>       0.00262985 </v>
   <v>       0.00262985 </v>
   <v>       0.00131492 </v>
   <v>       0.00131492 </v>
   <v>       0.00262985 </v>
   <v>       0.00262985 </v>
   <v>       0.00131492 </v>
   <v>       0.00131492 </v>
   <v>       0.00131492 </v>
   <v>       0.00131492 </v>
   <v>       0.00262985 </v>
   <v>       0.00262985 </v>
   <v>       0.00262985 </v>
   <v>       0.00262985 </v>
   <v>       0.00262985 </v>
   <v>       0.00262985 </v>
   <v>       0.00262985 </v>
   <v>       0.00262985 </v>
   <v>       0.00262985 </v>
   <v>       0.00262985 </v>
   <v>       0.00262985 </v>
   <v>       0.00262985 </v>
   <v>       0.00131492 </v>
   <v>       0.00262985 </v>
   <v>       0.00262985 </v>
   <v>       0.00262985 </v>
   <v>       0.00262985 </v>
   <v>       0.00262985 </v>
   <v>       0.00262985 </v>
   <v>       0.00262985 </v>
   <v>       0.00262985 </v>
   <v>       0.00262985 </v>
   <v>       0.00262985 </v>
   <v>       0.00262985 </v>
   <v>       0.00131492 </v>
   <v>       0.00262985 </v>
   <v>       0.00262985 </v>
   <v>       0.00262985 </v>
   <v>       0.00262985 </v>
   <v>       0.00262985 </v>
   <v>       0.00262985 </v>
   <v>       0.00262985 </v>
   <v>       0.00262985 </v>
   <v>       0.00262985 </v>
   <v>       0.00262985 </v>
   <v>       0.00131492 </v>
   <v>       0.00262985 </v>
   <v>       0.00262985 </v>
   <v>       0.00262985 </v>
   <v>       0.00262985 </v>
   <v>       0.00262985 </v>
   <v>       0.00262985 </v>
   <v>       0.00262985 </v>
   <v>       0.00262985 </v>
   <v>       0.00262985 </v>
   <v>       0.00131492 </v>
   <v>       0.00262985 </v>
   <v>       0.00262985 </v>
   <v>       0.00262985 </v>
   <v>       0.00262985 </v>
   <v>       0.00262985 </v>
   <v>       0.00262985 </v>
   <v>       0.00262985 </v>
   <v>       0.00262985 </v>
   <v>       0.00131492 </v>
   <v>       0.00262985 </v>
   <v>       0.00262985 </v>
   <v>       0.00262985 </v>
   <v>       0.00262985 </v>
   <v>       0.00262985 </v>
   <v>       0.00262985 </v>
   <v>       0.00262985 </v>
   <v>       0.00131492 </v>
   <v>       0.00262985 </v>
   <v>       0.00262985 </v>
   <v>       0.00262985 </v>
   <v>       0.00262985 </v>
   <v>       0.00262985 </v>
   <v>       0.00262985 </v>
   <v>       0.00131492 </v>
   <v>       0.00262985 </v>
   <v>       0.00262985 </v>
   <v>       0.00262985 </v>
   <v>       0.00262985 </v>
   <v>       0.00262985 </v>
   <v>       0.00131492 </v>
   <v>       0.00262985 </v>
   <v>       0.00262985 </v>
   <v>       0.00262985 </v>
   <v>       0.00262985 </v>
   <v>       0.00131492 </v>
   <v>       0.00262985 </v>
   <v>       0.00262985 </v>
   <v>       0.00262985 </v>
   <v>       0.00131492 </v>
   <v>       0.00262985 </v>
   <v>       0.00262985 </v>
   <v>       0.00131492 </v>
   <v>       0.00262985 </v>
   <v>       0.00131492 </v>
   <v>       0.00131492 </v>
   <v>       0.00262985 </v>
   <v>       0.00262985 </v>
   <v>       0.00262985 </v>
   <v>       0.00262985 </v>
   <v>       0.00262985 </v>
   <v>       0.00262985 </v>
   <v>       0.00262985 </v>
   <v>       0.00262985 </v>
   <v>       0.00262985 </v>
   <v>       0.00262985 </v>
   <v>       0.00262985 </v>
   <v>       0.00262985 </v>
   <v>       0.00131492 </v>
   <v>       0.00262985 </v>
   <v>       0.00262985 </v>
   <v>       0.00262985 </v>
   <v>       0.00262985 </v>
   <v>       0.00262985 </v>
   <v>       0.00262985 </v>
   <v>       0.00262985 </v>
   <v>       0.00262985 </v>
   <v>       0.00262985 </v>
   <v>       0.00262985 </v>
   <v>       0.00262985 </v>
   <v>       0.00131492 </v>
   <v>       0.00262985 </v>
   <v>       0.00262985 </v>
   <v>       0.00262985 </v>
   <v>       0.00262985 </v>
   <v>       0.00262985 </v>
   <v>       0.00262985 </v>
   <v>       0.00262985 </v>
   <v>       0.00262985 </v>
   <v>       0.00262985 </v>
   <v>       0.00262985 </v>
   <v>       0.00131492 </v>
   <v>       0.00262985 </v>
   <v>       0.00262985 </v>
   <v>       0.00262985 </v>
   <v>       0.00262985 </v>
   <v>       0.00262985 </v>
   <v>       0.00262985 </v>
   <v>       0.00262985 </v>
   <v>       0.00262985 </v>
   <v>       0.00262985 </v>
   <v>       0.00131492 </v>
   <v>       0.00262985 </v>
   <v>       0.00262985 </v>
   <v>       0.00262985 </v>
   <v>       0.00262985 </v>
   <v>       0.00262985 </v>
   <v>       0.00262985 </v>
   <v>       0.00262985 </v>
   <v>       0.00262985 </v>
   <v>       0.00131492 </v>
   <v>       0.00262985 </v>
   <v>       0.00262985 </v>
   <v>       0.00262985 </v>
   <v>       0.00262985 </v>
   <v>       0.00262985 </v>
   <v>       0.00262985 </v>
   <v>       0.00262985 </v>
   <v>       0.00131492 </v>
   <v>       0.00262985 </v>
   <v>       0.00262985 </v>
   <v>       0.00262985 </v>
   <v>       0.00262985 </v>
   <v>       0.00262985 </v>
   <v>       0.00262985 </v>
   <v>       0.00131492 </v>
   <v>       0.00262985 </v>
   <v>       0.00262985 </v>
   <v>       0.00262985 </v>
   <v>       0.00262985 </v>
   <v>       0.00262985 </v>
   <v>       0.00131492 </v>
   <v>       0.00262985 </v>
   <v>       0.00262985 </v>
   <v>       0.00262985 </v>
   <v>       0.00262985 </v>
   <v>       0.00131492 </v>
   <v>       0.00262985 </v>
   <v>       0.00262985 </v>
   <v>       0.00262985 </v>
   <v>       0.00131492 </v>
   <v>       0.00262985 </v>
   <v>       0.00262985 </v>
   <v>       0.00131492 </v>
   <v>       0.00262985 </v>
   <v>       0.00131492 </v>
   <v>       0.00131492 </v>
   <v>       0.00262985 </v>
   <v>       0.00262985 </v>
   <v>       0.00262985 </v>
   <v>       0.00262985 </v>
   <v>       0.00262985 </v>
   <v>       0.00262985 </v>
   <v>       0.00262985 </v>
   <v>       0.00262985 </v>
   <v>       0.00262985 </v>
   <v>       0.00262985 </v>
   <v>       0.00262985 </v>
   <v>       0.00262985 </v>
   <v>       0.00131492 </v>
   <v>       0.00262985 </v>
   <v>       0.00262985 </v>
   <v>       0.00262985 </v>
   <v>       0.00262985 </v>
   <v>       0.00262985 </v>
   <v>       0.00262985 </v>
   <v>       0.00262985 </v>
   <v>       0.00262985 </v>
   <v>       0.00262985 </v>
   <v>       0.00262985 </v>
   <v>       0.00262985 </v>
   <v>       0.00131492 </v>
   <v>       0.00262985 </v>
   <v>       0.00262985 </v>
   <v>       0.00262985 </v>
   <v>       0.00262985 </v>
   <v>       0.00262985 </v>
   <v>       0.00262985 </v>
   <v>       0.00262985 </v>
   <v>       0.00262985 </v>
   <v>       0.00262985 </v>
   <v>       0.00262985 </v>
   <v>       0.00131492 </v>
   <v>       0.00262985 </v>
   <v>       0.00262985 </v>
   <v>       0.00262985 </v>
   <v>       0.00262985 </v>
   <v>       0.00262985 </v>
   <v>       0.00262985 </v>
   <v>       0.00262985 </v>
   <v>       0.00262985 </v>
   <v>       0.00262985 </v>
   <v>       0.00131492 </v>
   <v>       0.00262985 </v>
   <v>       0.00262985 </v>
   <v>       0.00262985 </v>
   <v>       0.00262985 </v>
   <v>       0.00262985 </v>
   <v>       0.00262985 </v>
   <v>       0.00262985 </v>
   <v>       0.00262985 </v>
   <v>       0.00131492 </v>
   <v>       0.00262985 </v>
   <v>       0.00262985 </v>
   <v>       0.00262985 </v>
   <v>       0.00262985 </v>
   <v>       0.00262985 </v>
   <v>       0.00262985 </v>
   <v>       0.00262985 </v>
   <v>       0.00131492 </v>
   <v>       0.00262985 </v>
   <v>       0.00262985 </v>
   <v>       0.00262985 </v>
   <v>       0.00262985 </v>
   <v>       0.00262985 </v>
   <v>       0.00262985 </v>
   <v>       0.00131492 </v>
   <v>       0.00262985 </v>
   <v>       0.00262985 </v>
   <v>       0.00262985 </v>
   <v>       0.00262985 </v>
   <v>       0.00262985 </v>
   <v>       0.00131492 </v>
   <v>       0.00262985 </v>
   <v>       0.00262985 </v>
   <v>       0.00262985 </v>
   <v>       0.00262985 </v>
   <v>       0.00131492 </v>
   <v>       0.00262985 </v>
   <v>       0.00262985 </v>
   <v>       0.00262985 </v>
   <v>       0.00131492 </v>
   <v>       0.00262985 </v>
   <v>       0.00262985 </v>
   <v>       0.00131492 </v>
   <v>       0.00262985 </v>
   <v>       0.00131492 </v>
   <v>       0.00131492 </v>
   <v>       0.00262985 </v>
   <v>       0.00262985 </v>
   <v>       0.00262985 </v>
   <v>       0.00262985 </v>
   <v>       0.00262985 </v>
   <v>       0.00262985 </v>
   <v>       0.00262985 </v>
   <v>       0.00262985 </v>
   <v>       0.00262985 </v>
   <v>       0.00262985 </v>
   <v>       0.00262985 </v>
   <v>       0.00262985 </v>
   <v>       0.00131492 </v>
   <v>       0.00262985 </v>
   <v>       0.00262985 </v>
   <v>       0.00262985 </v>
   <v>       0.00262985 </v>
   <v>       0.00262985 </v>
   <v>       0.00262985 </v>
   <v>       0.00262985 </v>
   <v>       0.00262985 </v>
   <v>       0.00262985 </v>
   <v>       0.00262985 </v>
   <v>       0.00262985 </v>
   <v>       0.00131492 </v>
   <v>       0.00262985 </v>
   <v>       0.00262985 </v>
   <v>       0.00262985 </v>
   <v>       0.00262985 </v>
   <v>       0.00262985 </v>
   <v>       0.00262985 </v>
   <v>       0.00262985 </v>
   <v>       0.00262985 </v>
   <v>       0.00262985 </v>
   <v>       0.00262985 </v>
   <v>       0.00131492 </v>
   <v>       0.00262985 </v>
   <v>       0.00262985 </v>
   <v>       0.00262985 </v>
   <v>       0.00262985 </v>
   <v>       0.00262985 </v>
   <v>       0.00262985 </v>
   <v>       0.00262985 </v>
   <v>       0.00262985 </v>
   <v>       0.00262985 </v>
   <v>       0.00131492 </v>
   <v>       0.00262985 </v>
   <v>       0.00262985 </v>
   <v>       0.00262985 </v>
   <v>       0.00262985 </v>
   <v>       0.00262985 </v>
   <v>       0.00262985 </v>
   <v>       0.00262985 </v>
   <v>       0.00262985 </v>
   <v>       0.00131492 </v>
   <v>       0.00262985 </v>
   <v>       0.00262985 </v>
   <v>       0.00262985 </v>
   <v>       0.00262985 </v>
   <v>       0.00262985 </v>
   <v>       0.00262985 </v>
   <v>       0.00262985 </v>
   <v>       0.00131492 </v>
   <v>       0.00262985 </v>
   <v>       0.00262985 </v>
   <v>       0.00262985 </v>
   <v>       0.00262985 </v>
   <v>       0.00262985 </v>
   <v>       0.00262985 </v>
   <v>       0.00131492 </v>
   <v>       0.00262985 </v>
   <v>       0.00262985 </v>
   <v>       0.00262985 </v>
   <v>       0.00262985 </v>
   <v>       0.00262985 </v>
   <v>       0.00131492 </v>
   <v>       0.00262985 </v>
   <v>       0.00262985 </v>
   <v>       0.00262985 </v>
   <v>       0.00262985 </v>
   <v>       0.00131492 </v>
   <v>       0.00262985 </v>
   <v>       0.00262985 </v>
   <v>       0.00262985 </v>
   <v>       0.00131492 </v>
   <v>       0.00262985 </v>
   <v>       0.00262985 </v>
   <v>       0.00131492 </v>
   <v>       0.00262985 </v>
   <v>       0.00131492 </v>
  </varray>
  <varray name="tetrahedronlist"  type="int" >
   <v type="int" >        2       51       52       85      176 </v>
   <v type="int" >        2       51       74       85      176 </v>
   <v type="int" >        2       51       74      165      176 </v>
   <v type="int" >        2       51       52      143      176 </v>
   <v type="int" >        2       51      142      143      176 </v>
   <v type="int" >        2       51      142      165      176 </v>
   <v type="int" >        2       52       53       95      186 </v>
   <v type="int" >        2       52       85       95      186 </v>
   <v type="int" >        2       52       85      176      186 </v>
   <v type="int" >        2       52       53      144      186 </v>
   <v type="int" >        2       52      143      144      186 </v>
   <v type="int" >        2       52      143      176      186 </v>
   <v type="int" >        2       53       54      104      195 </v>
   <v type="int" >        2       53       95      104      195 </v>
   <v type="int" >        2       53       95      186      195 </v>
   <v type="int" >        2       53       54      145      195 </v>
   <v type="int" >        2       53      144      145      195 </v>
   <v type="int" >        2       53      144      186      195 </v>
   <v type="int" >        2       54       55      112      203 </v>
   <v type="int" >        2       54      104      112      203 </v>
   <v type="int" >        2       54      104      195      203 </v>
   <v type="int" >        2       54       55      146      203 </v>
   <v type="int" >        2       54      145      146      203 </v>
   <v type="int" >        2       54      145      195      203 </v>
   <v type="int" >        2       55       56      119      210 </v>
   <v type="int" >        2       55      112      119      210 </v>
   <v type="int" >        2       55      112      203      210 </v>
   <v type="int" >        2       55       56      147      210 </v>
   <v type="int" >        2       55      146      147      210 </v>
   <v type="int" >        2       55      146      203      210 </v>
   <v type="int" >        2       56       57      125      216 </v>
   <v type="int" >        2       56      119      125      216 </v>
   <v type="int" >        2       56      119      210      216 </v>
   <v type="int" >        2       56       57      148      216 </v>
   <v type="int" >        2       56      147      148      216 </v>
   <v type="int" >        2       56      147      210      216 </v>
   <v type="int" >        2       57       58      130      221 </v>
   <v type="int" >        2       57      125      130      221 </v>
   <v type="int" >        2       57      125      216      221 </v>
   <v type="int" >        2       57       58      149      221 </v>
   <v type="int" >        2       57      148      149      221 </v>
   <v type="int" >        2       57      148      216      221 </v>
   <v type="int" >        2       58       59      134      225 </v>
   <v type="int" >        2       58      130      134      225 </v>
   <v type="int" >        2       58      130      221      225 </v>
   <v type="int" >        2       58       59      150      225 </v>
   <v type="int" >        2       58      149      150      225 </v>
   <v type="int" >        2       58      149      221      225 </v>
   <v type="int" >        2       59       60      137      228 </v>
   <v type="int" >        2       59      134      137      228 </v>
   <v type="int" >        2       59      134      225      228 </v>
   <v type="int" >        2       59       60      151      228 </v>
   <v type="int" >        2       59      150      151      228 </v>
   <v type="int" >        2       59      150      225      228 </v>
   <v type="int" >        2       60       61      139      230 </v>
   <v type="int" >        2       60      137      139      230 </v>
   <v type="int" >        2       60      137      228      230 </v>
   <v type="int" >        2       60       61      152      230 </v>
   <v type="int" >        2       60      151      152      230 </v>
   <v type="int" >        2       60      151      228      230 </v>
   <v type="int" >        2       61       62      140      231 </v>
   <v type="int" >        2       61      139      140      231 </v>
   <v type="int" >        2       61      139      230      231 </v>
   <v type="int" >        2       61       62      153      231 </v>
   <v type="int" >        2       61      152      153      231 </v>
   <v type="int" >        2       61      152      230      231 </v>
   <v type="int" >        2       50       62       62      153 </v>
   <v type="int" >        2       62       62      140      153 </v>
   <v type="int" >        2       62      140      153      231 </v>
   <v type="int" >        2       50       62      141      153 </v>
   <v type="int" >        2       62      141      153      153 </v>
   <v type="int" >        2       62      153      153      231 </v>
   <v type="int" >        2       50       51       74      165 </v>
   <v type="int" >        2       50       62       74      165 </v>
   <v type="int" >        2       50       62      153      165 </v>
   <v type="int" >        2       50       51      142      165 </v>
   <v type="int" >        2       50      141      142      165 </v>
   <v type="int" >        2       50      141      153      165 </v>
   <v type="int" >        2      165      175      176      266 </v>
   <v type="int" >        2      164      165      175      266 </v>
   <v type="int" >        2      164      165      255      266 </v>
   <v type="int" >        2      165      176      266      267 </v>
   <v type="int" >        2      165      256      266      267 </v>
   <v type="int" >        2      165      255      256      266 </v>
   <v type="int" >        2      176      185      186      276 </v>
   <v type="int" >        2      175      176      185      276 </v>
   <v type="int" >        2      175      176      266      276 </v>
   <v type="int" >        2      176      186      276      277 </v>
   <v type="int" >        2      176      267      276      277 </v>
   <v type="int" >        2      176      266      267      276 </v>
   <v type="int" >        2      186      194      195      285 </v>
   <v type="int" >        2      185      186      194      285 </v>
   <v type="int" >        2      185      186      276      285 </v>
   <v type="int" >        2      186      195      285      286 </v>
   <v type="int" >        2      186      277      285      286 </v>
   <v type="int" >        2      186      276      277      285 </v>
   <v type="int" >        2      195      202      203      293 </v>
   <v type="int" >        2      194      195      202      293 </v>
   <v type="int" >        2      194      195      285      293 </v>
   <v type="int" >        2      195      203      293      294 </v>
   <v type="int" >        2      195      286      293      294 </v>
   <v type="int" >        2      195      285      286      293 </v>
   <v type="int" >        2      203      209      210      300 </v>
   <v type="int" >        2      202      203      209      300 </v>
   <v type="int" >        2      202      203      293      300 </v>
   <v type="int" >        2      203      210      300      301 </v>
   <v type="int" >        2      203      294      300      301 </v>
   <v type="int" >        2      203      293      294      300 </v>
   <v type="int" >        2      210      215      216      306 </v>
   <v type="int" >        2      209      210      215      306 </v>
   <v type="int" >        2      209      210      300      306 </v>
   <v type="int" >        2      210      216      306      307 </v>
   <v type="int" >        2      210      301      306      307 </v>
   <v type="int" >        2      210      300      301      306 </v>
   <v type="int" >        2      216      220      221      311 </v>
   <v type="int" >        2      215      216      220      311 </v>
   <v type="int" >        2      215      216      306      311 </v>
   <v type="int" >        2      216      221      311      312 </v>
   <v type="int" >        2      216      307      311      312 </v>
   <v type="int" >        2      216      306      307      311 </v>
   <v type="int" >        2      221      224      225      315 </v>
   <v type="int" >        2      220      221      224      315 </v>
   <v type="int" >        2      220      221      311      315 </v>
   <v type="int" >        2      221      225      315      316 </v>
   <v type="int" >        2      221      312      315      316 </v>
   <v type="int" >        2      221      311      312      315 </v>
   <v type="int" >        2      225      227      228      318 </v>
   <v type="int" >        2      224      225      227      318 </v>
   <v type="int" >        2      224      225      315      318 </v>
   <v type="int" >        2      225      228      318      319 </v>
   <v type="int" >        2      225      316      318      319 </v>
   <v type="int" >        2      225      315      316      318 </v>
   <v type="int" >        2      228      229      230      320 </v>
   <v type="int" >        2      227      228      229      320 </v>
   <v type="int" >        2      227      228      318      320 </v>
   <v type="int" >        2      228      230      320      321 </v>
   <v type="int" >        2      228      319      320      321 </v>
   <v type="int" >        2      228      318      319      320 </v>
   <v type="int" >        2      230      230      231      321 </v>
   <v type="int" >        2      229      230      230      321 </v>
   <v type="int" >        2      229      230      320      321 </v>
   <v type="int" >        2      230      231      321      322 </v>
   <v type="int" >        2      230      321      321      322 </v>
   <v type="int" >        2      230      320      321      321 </v>
   <v type="int" >        2      152      153      231      243 </v>
   <v type="int" >        2      152      230      231      243 </v>
   <v type="int" >        2      230      231      243      321 </v>
   <v type="int" >        2      153      231      243      244 </v>
   <v type="int" >        2      231      243      244      322 </v>
   <v type="int" >        2      231      243      321      322 </v>
   <v type="int" >        2      153      164      165      255 </v>
   <v type="int" >        2      152      153      164      255 </v>
   <v type="int" >        2      152      153      243      255 </v>
   <v type="int" >        2      153      165      255      256 </v>
   <v type="int" >        2      153      244      255      256 </v>
   <v type="int" >        2      153      243      244      255 </v>
   <v type="int" >        2      255      265      266      356 </v>
   <v type="int" >        2      254      255      265      356 </v>
   <v type="int" >        2      254      255      345      356 </v>
   <v type="int" >        2      255      266      356      357 </v>
   <v type="int" >        2      255      346      356      357 </v>
   <v type="int" >        2      255      345      346      356 </v>
   <v type="int" >        2      266      275      276      366 </v>
   <v type="int" >        2      265      266      275      366 </v>
   <v type="int" >        2      265      266      356      366 </v>
   <v type="int" >        2      266      276      366      367 </v>
   <v type="int" >        2      266      357      366      367 </v>
   <v type="int" >        2      266      356      357      366 </v>
   <v type="int" >        2      276      284      285      375 </v>
   <v type="int" >        2      275      276      284      375 </v>
   <v type="int" >        2      275      276      366      375 </v>
   <v type="int" >        2      276      285      375      376 </v>
   <v type="int" >        2      276      367      375      376 </v>
   <v type="int" >        2      276      366      367      375 </v>
   <v type="int" >        2      285      292      293      383 </v>
   <v type="int" >        2      284      285      292      383 </v>
   <v type="int" >        2      284      285      375      383 </v>
   <v type="int" >        2      285      293      383      384 </v>
   <v type="int" >        2      285      376      383      384 </v>
   <v type="int" >        2      285      375      376      383 </v>
   <v type="int" >        2      293      299      300      390 </v>
   <v type="int" >        2      292      293      299      390 </v>
   <v type="int" >        2      292      293      383      390 </v>
   <v type="int" >        2      293      300      390      391 </v>
   <v type="int" >        2      293      384      390      391 </v>
   <v type="int" >        2      293      383      384      390 </v>
   <v type="int" >        2      300      305      306      396 </v>
   <v type="int" >        2      299      300      305      396 </v>
   <v type="int" >        2      299      300      390      396 </v>
   <v type="int" >        2      300      306      396      397 </v>
   <v type="int" >        2      300      391      396      397 </v>
   <v type="int" >        2      300      390      391      396 </v>
   <v type="int" >        2      306      310      311      401 </v>
   <v type="int" >        2      305      306      310      401 </v>
   <v type="int" >        2      305      306      396      401 </v>
   <v type="int" >        2      306      311      401      402 </v>
   <v type="int" >        2      306      397      401      402 </v>
   <v type="int" >        2      306      396      397      401 </v>
   <v type="int" >        2      311      314      315      405 </v>
   <v type="int" >        2      310      311      314      405 </v>
   <v type="int" >        2      310      311      401      405 </v>
   <v type="int" >        2      311      315      405      406 </v>
   <v type="int" >        2      311      402      405      406 </v>
   <v type="int" >        2      311      401      402      405 </v>
   <v type="int" >        2      315      317      318      408 </v>
   <v type="int" >        2      314      315      317      408 </v>
   <v type="int" >        2      314      315      405      408 </v>
   <v type="int" >        2      315      318      408      409 </v>
   <v type="int" >        2      315      406      408      409 </v>
   <v type="int" >        2      315      405      406      408 </v>
   <v type="int" >        2      318      318      320      409 </v>
   <v type="int" >        2      317      318      318      409 </v>
   <v type="int" >        2      317      318      408      409 </v>
   <v type="int" >        2      318      320      409      411 </v>
   <v type="int" >        2      318      409      409      411 </v>
   <v type="int" >        2      318      408      409      409 </v>
   <v type="int" >        2      319      320      321      410 </v>
   <v type="int" >        2      318      319      320      410 </v>
   <v type="int" >        2      318      320      409      410 </v>
   <v type="int" >        2      320      321      410      412 </v>
   <v type="int" >        2      320      410      411      412 </v>
   <v type="int" >        2      320      409      410      411 </v>
   <v type="int" >        2      242      243      321      333 </v>
   <v type="int" >        2      242      319      321      333 </v>
   <v type="int" >        2      319      321      333      410 </v>
   <v type="int" >        2      243      321      333      334 </v>
   <v type="int" >        2      321      333      334      412 </v>
   <v type="int" >        2      321      333      410      412 </v>
   <v type="int" >        2      243      254      255      345 </v>
   <v type="int" >        2      242      243      254      345 </v>
   <v type="int" >        2      242      243      333      345 </v>
   <v type="int" >        2      243      255      345      346 </v>
   <v type="int" >        2      243      334      345      346 </v>
   <v type="int" >        2      243      333      334      345 </v>
   <v type="int" >        2      345      355      356      376 </v>
   <v type="int" >        2      344      345      355      376 </v>
   <v type="int" >        2      344      345      376      377 </v>
   <v type="int" >        2      345      356      367      376 </v>
   <v type="int" >        2      345      367      368      376 </v>
   <v type="int" >        2      345      368      376      377 </v>
   <v type="int" >        2      356      365      366      375 </v>
   <v type="int" >        2      355      356      365      375 </v>
   <v type="int" >        2      355      356      375      376 </v>
   <v type="int" >        2      356      366      366      375 </v>
   <v type="int" >        2      356      366      367      375 </v>
   <v type="int" >        2      356      367      375      376 </v>
   <v type="int" >        2      366      374      374      375 </v>
   <v type="int" >        2      365      366      374      374 </v>
   <v type="int" >        4      365      366      374      375 </v>
   <v type="int" >        2      365      366      366      374 </v>
   <v type="int" >        2      366      366      374      375 </v>
   <v type="int" >        2      373      375      382      383 </v>
   <v type="int" >        2      373      374      375      382 </v>
   <v type="int" >        2      373      374      374      375 </v>
   <v type="int" >        2      364      373      375      383 </v>
   <v type="int" >        2      364      365      373      375 </v>
   <v type="int" >        2      365      373      374      375 </v>
   <v type="int" >        2      372      383      389      390 </v>
   <v type="int" >        2      372      382      383      389 </v>
   <v type="int" >        2      372      373      382      383 </v>
   <v type="int" >        2      363      372      383      390 </v>
   <v type="int" >        2      363      364      372      383 </v>
   <v type="int" >        2      364      372      373      383 </v>
   <v type="int" >        2      371      390      395      396 </v>
   <v type="int" >        2      371      389      390      395 </v>
   <v type="int" >        2      371      372      389      390 </v>
   <v type="int" >        2      362      371      390      396 </v>
   <v type="int" >        2      362      363      371      390 </v>
   <v type="int" >        2      363      371      372      390 </v>
   <v type="int" >        2      370      396      400      401 </v>
   <v type="int" >        2      370      395      396      400 </v>
   <v type="int" >        2      370      371      395      396 </v>
   <v type="int" >        2      361      370      396      401 </v>
   <v type="int" >        2      361      362      370      396 </v>
   <v type="int" >        2      362      370      371      396 </v>
   <v type="int" >        2      369      401      404      405 </v>
   <v type="int" >        2      369      400      401      404 </v>
   <v type="int" >        2      369      370      400      401 </v>
   <v type="int" >        2      360      369      401      405 </v>
   <v type="int" >        2      360      361      369      401 </v>
   <v type="int" >        2      361      369      370      401 </v>
   <v type="int" >        2      360      405      405      408 </v>
   <v type="int" >        2      360      404      405      405 </v>
   <v type="int" >        2      360      369      404      405 </v>
   <v type="int" >        2      359      360      405      408 </v>
   <v type="int" >        2      359      360      360      405 </v>
   <v type="int" >        2      360      360      369      405 </v>
   <v type="int" >        2      350      406      408      409 </v>
   <v type="int" >        2      350      405      406      408 </v>
   <v type="int" >        2      350      360      405      408 </v>
   <v type="int" >        2      349      350      408      409 </v>
   <v type="int" >        2      349      350      359      408 </v>
   <v type="int" >        2      350      359      360      408 </v>
   <v type="int" >        2      339      407      409      410 </v>
   <v type="int" >        2      339      406      407      409 </v>
   <v type="int" >        2      339      350      406      409 </v>
   <v type="int" >        2      338      339      409      410 </v>
   <v type="int" >        2      338      339      349      409 </v>
   <v type="int" >        2      339      349      350      409 </v>
   <v type="int" >        2      327      332      333      410 </v>
   <v type="int" >        2      327      332      407      410 </v>
   <v type="int" >        2      327      339      407      410 </v>
   <v type="int" >        2      326      327      333      410 </v>
   <v type="int" >        2      326      327      338      410 </v>
   <v type="int" >        2      327      338      339      410 </v>
   <v type="int" >        2      333      344      345      377 </v>
   <v type="int" >        2      332      333      344      377 </v>
   <v type="int" >        2      327      332      333      377 </v>
   <v type="int" >        2      333      345      368      377 </v>
   <v type="int" >        2      326      333      368      377 </v>
   <v type="int" >        2      326      327      333      377 </v>
   <v type="int" >        2      293      376      377      384 </v>
   <v type="int" >        2      293      377      384      385 </v>
   <v type="int" >        2      293      294      377      385 </v>
   <v type="int" >        2      285      293      376      377 </v>
   <v type="int" >        2      285      286      293      377 </v>
   <v type="int" >        2      286      293      294      377 </v>
   <v type="int" >        2      292      375      376      383 </v>
   <v type="int" >        2      292      376      383      384 </v>
   <v type="int" >        2      292      293      376      384 </v>
   <v type="int" >        2      284      292      375      376 </v>
   <v type="int" >        2      284      285      292      376 </v>
   <v type="int" >        2      285      292      293      376 </v>
   <v type="int" >        2      291      374      375      382 </v>
   <v type="int" >        2      291      375      382      383 </v>
   <v type="int" >        2      291      292      375      383 </v>
   <v type="int" >        2      283      291      374      375 </v>
   <v type="int" >        2      283      284      291      375 </v>
   <v type="int" >        2      284      291      292      375 </v>
   <v type="int" >        2      290      373      374      381 </v>
   <v type="int" >        2      290      374      381      382 </v>
   <v type="int" >        2      290      291      374      382 </v>
   <v type="int" >        2      282      290      373      374 </v>
   <v type="int" >        2      282      283      290      374 </v>
   <v type="int" >        2      283      290      291      374 </v>
   <v type="int" >        2      289      372      373      380 </v>
   <v type="int" >        2      289      373      380      381 </v>
   <v type="int" >        2      289      290      373      381 </v>
   <v type="int" >        2      281      289      372      373 </v>
   <v type="int" >        2      281      282      289      373 </v>
   <v type="int" >        2      282      289      290      373 </v>
   <v type="int" >        2      288      371      372      379 </v>
   <v type="int" >        2      288      372      379      380 </v>
   <v type="int" >        2      288      289      372      380 </v>
   <v type="int" >        2      280      288      371      372 </v>
   <v type="int" >        2      280      281      288      372 </v>
   <v type="int" >        2      281      288      289      372 </v>
   <v type="int" >        2      287      370      371      378 </v>
   <v type="int" >        2      287      371      378      379 </v>
   <v type="int" >        2      287      288      371      379 </v>
   <v type="int" >        2      279      287      370      371 </v>
   <v type="int" >        2      279      280      287      371 </v>
   <v type="int" >        2      280      287      288      371 </v>
   <v type="int" >        2      279      369      370      370 </v>
   <v type="int" >        2      279      370      370      378 </v>
   <v type="int" >        2      279      287      370      378 </v>
   <v type="int" >        2      278      279      369      370 </v>
   <v type="int" >        2      278      279      279      370 </v>
   <v type="int" >        2      279      279      287      370 </v>
   <v type="int" >        2      270      360      361      369 </v>
   <v type="int" >        2      270      361      369      370 </v>
   <v type="int" >        2      270      279      369      370 </v>
   <v type="int" >        2      269      270      360      369 </v>
   <v type="int" >        2      269      270      278      369 </v>
   <v type="int" >        2      270      278      279      369 </v>
   <v type="int" >        2      260      350      351      360 </v>
   <v type="int" >        2      260      351      360      361 </v>
   <v type="int" >        2      260      270      360      361 </v>
   <v type="int" >        2      259      260      350      360 </v>
   <v type="int" >        2      259      260      269      360 </v>
   <v type="int" >        2      260      269      270      360 </v>
   <v type="int" >        2      249      339      340      350 </v>
   <v type="int" >        2      249      340      350      351 </v>
   <v type="int" >        2      249      260      350      351 </v>
   <v type="int" >        2      248      249      339      350 </v>
   <v type="int" >        2      248      249      259      350 </v>
   <v type="int" >        2      249      259      260      350 </v>
   <v type="int" >        2      237      327      328      339 </v>
   <v type="int" >        2      237      328      339      340 </v>
   <v type="int" >        2      237      249      339      340 </v>
   <v type="int" >        2      236      237      327      339 </v>
   <v type="int" >        2      236      237      248      339 </v>
   <v type="int" >        2      237      248      249      339 </v>
   <v type="int" >        2      294      327      377      385 </v>
   <v type="int" >        2      294      327      328      385 </v>
   <v type="int" >        2      237      294      327      328 </v>
   <v type="int" >        2      286      294      327      377 </v>
   <v type="int" >        2      236      286      294      327 </v>
   <v type="int" >        2      236      237      294      327 </v>
   <v type="int" >        2      209      293      294      300 </v>
   <v type="int" >        2      209      294      300      301 </v>
   <v type="int" >        2      209      210      294      301 </v>
   <v type="int" >        2      202      209      293      294 </v>
   <v type="int" >        2      202      203      209      294 </v>
   <v type="int" >        2      203      209      210      294 </v>
   <v type="int" >        2      208      292      293      299 </v>
   <v type="int" >        2      208      293      299      300 </v>
   <v type="int" >        2      208      209      293      300 </v>
   <v type="int" >        2      201      208      292      293 </v>
   <v type="int" >        2      201      202      208      293 </v>
   <v type="int" >        2      202      208      209      293 </v>
   <v type="int" >        2      207      291      292      298 </v>
   <v type="int" >        2      207      292      298      299 </v>
   <v type="int" >        2      207      208      292      299 </v>
   <v type="int" >        2      200      207      291      292 </v>
   <v type="int" >        2      200      201      207      292 </v>
   <v type="int" >        2      201      207      208      292 </v>
   <v type="int" >        2      206      290      291      297 </v>
   <v type="int" >        2      206      291      297      298 </v>
   <v type="int" >        2      206      207      291      298 </v>
   <v type="int" >        2      199      206      290      291 </v>
   <v type="int" >        2      199      200      206      291 </v>
   <v type="int" >        2      200      206      207      291 </v>
   <v type="int" >        2      205      289      290      296 </v>
   <v type="int" >        2      205      290      296      297 </v>
   <v type="int" >        2      205      206      290      297 </v>
   <v type="int" >        2      198      205      289      290 </v>
   <v type="int" >        2      198      199      205      290 </v>
   <v type="int" >        2      199      205      206      290 </v>
   <v type="int" >        2      204      288      289      295 </v>
   <v type="int" >        2      204      289      295      296 </v>
   <v type="int" >        2      204      205      289      296 </v>
   <v type="int" >        2      197      204      288      289 </v>
   <v type="int" >        2      197      198      204      289 </v>
   <v type="int" >        2      198      204      205      289 </v>
   <v type="int" >        2      197      287      288      288 </v>
   <v type="int" >        2      197      288      288      295 </v>
   <v type="int" >        2      197      204      288      295 </v>
   <v type="int" >        2      196      197      287      288 </v>
   <v type="int" >        2      196      197      197      288 </v>
   <v type="int" >        2      197      197      204      288 </v>
   <v type="int" >        2      189      279      280      287 </v>
   <v type="int" >        2      189      280      287      288 </v>
   <v type="int" >        2      189      197      287      288 </v>
   <v type="int" >        2      188      189      279      287 </v>
   <v type="int" >        2      188      189      196      287 </v>
   <v type="int" >        2      189      196      197      287 </v>
   <v type="int" >        2      180      270      271      279 </v>
   <v type="int" >        2      180      271      279      280 </v>
   <v type="int" >        2      180      189      279      280 </v>
   <v type="int" >        2      179      180      270      279 </v>
   <v type="int" >        2      179      180      188      279 </v>
   <v type="int" >        2      180      188      189      279 </v>
   <v type="int" >        2      170      260      261      270 </v>
   <v type="int" >        2      170      261      270      271 </v>
   <v type="int" >        2      170      180      270      271 </v>
   <v type="int" >        2      169      170      260      270 </v>
   <v type="int" >        2      169      170      179      270 </v>
   <v type="int" >        2      170      179      180      270 </v>
   <v type="int" >        2      159      249      250      260 </v>
   <v type="int" >        2      159      250      260      261 </v>
   <v type="int" >        2      159      170      260      261 </v>
   <v type="int" >        2      158      159      249      260 </v>
   <v type="int" >        2      158      159      169      260 </v>
   <v type="int" >        2      159      169      170      260 </v>
   <v type="int" >        2      147      237      238      249 </v>
   <v type="int" >        2      147      238      249      250 </v>
   <v type="int" >        2      147      159      249      250 </v>
   <v type="int" >        2      146      147      237      249 </v>
   <v type="int" >        2      146      147      158      249 </v>
   <v type="int" >        2      147      158      159      249 </v>
   <v type="int" >        2      210      237      294      301 </v>
   <v type="int" >        2      210      237      238      301 </v>
   <v type="int" >        2      147      210      237      238 </v>
   <v type="int" >        2      203      210      237      294 </v>
   <v type="int" >        2      146      203      210      237 </v>
   <v type="int" >        2      146      147      210      237 </v>
   <v type="int" >        2      124      209      210      215 </v>
   <v type="int" >        2      124      210      215      216 </v>
   <v type="int" >        2      124      125      210      216 </v>
   <v type="int" >        2      118      124      209      210 </v>
   <v type="int" >        2      118      119      124      210 </v>
   <v type="int" >        2      119      124      125      210 </v>
   <v type="int" >        2      123      208      209      214 </v>
   <v type="int" >        2      123      209      214      215 </v>
   <v type="int" >        2      123      124      209      215 </v>
   <v type="int" >        2      117      123      208      209 </v>
   <v type="int" >        2      117      118      123      209 </v>
   <v type="int" >        2      118      123      124      209 </v>
   <v type="int" >        2      122      207      208      213 </v>
   <v type="int" >        2      122      208      213      214 </v>
   <v type="int" >        2      122      123      208      214 </v>
   <v type="int" >        2      116      122      207      208 </v>
   <v type="int" >        2      116      117      122      208 </v>
   <v type="int" >        2      117      122      123      208 </v>
   <v type="int" >        2      121      206      207      212 </v>
   <v type="int" >        2      121      207      212      213 </v>
   <v type="int" >        2      121      122      207      213 </v>
   <v type="int" >        2      115      121      206      207 </v>
   <v type="int" >        2      115      116      121      207 </v>
   <v type="int" >        2      116      121      122      207 </v>
   <v type="int" >        2      120      205      206      211 </v>
   <v type="int" >        2      120      206      211      212 </v>
   <v type="int" >        2      120      121      206      212 </v>
   <v type="int" >        2      114      120      205      206 </v>
   <v type="int" >        2      114      115      120      206 </v>
   <v type="int" >        2      115      120      121      206 </v>
   <v type="int" >        2      114      204      205      205 </v>
   <v type="int" >        2      114      205      205      211 </v>
   <v type="int" >        2      114      120      205      211 </v>
   <v type="int" >        2      113      114      204      205 </v>
   <v type="int" >        2      113      114      114      205 </v>
   <v type="int" >        2      114      114      120      205 </v>
   <v type="int" >        2      107      197      198      204 </v>
   <v type="int" >        2      107      198      204      205 </v>
   <v type="int" >        2      107      114      204      205 </v>
   <v type="int" >        2      106      107      197      204 </v>
   <v type="int" >        2      106      107      113      204 </v>
   <v type="int" >        2      107      113      114      204 </v>
   <v type="int" >        2       99      189      190      197 </v>
   <v type="int" >        2       99      190      197      198 </v>
   <v type="int" >        2       99      107      197      198 </v>
   <v type="int" >        2       98       99      189      197 </v>
   <v type="int" >        2       98       99      106      197 </v>
   <v type="int" >        2       99      106      107      197 </v>
   <v type="int" >        2       90      180      181      189 </v>
   <v type="int" >        2       90      181      189      190 </v>
   <v type="int" >        2       90       99      189      190 </v>
   <v type="int" >        2       89       90      180      189 </v>
   <v type="int" >        2       89       90       98      189 </v>
   <v type="int" >        2       90       98       99      189 </v>
   <v type="int" >        2       80      170      171      180 </v>
   <v type="int" >        2       80      171      180      181 </v>
   <v type="int" >        2       80       90      180      181 </v>
   <v type="int" >        2       79       80      170      180 </v>
   <v type="int" >        2       79       80       89      180 </v>
   <v type="int" >        2       80       89       90      180 </v>
   <v type="int" >        2       69      159      160      170 </v>
   <v type="int" >        2       69      160      170      171 </v>
   <v type="int" >        2       69       80      170      171 </v>
   <v type="int" >        2       68       69      159      170 </v>
   <v type="int" >        2       68       69       79      170 </v>
   <v type="int" >        2       69       79       80      170 </v>
   <v type="int" >        2       57      147      148      159 </v>
   <v type="int" >        2       57      148      159      160 </v>
   <v type="int" >        2       57       69      159      160 </v>
   <v type="int" >        2       56       57      147      159 </v>
   <v type="int" >        2       56       57       68      159 </v>
   <v type="int" >        2       57       68       69      159 </v>
   <v type="int" >        2      125      147      210      216 </v>
   <v type="int" >        2      125      147      148      216 </v>
   <v type="int" >        2       57      125      147      148 </v>
   <v type="int" >        2      119      125      147      210 </v>
   <v type="int" >        2       56      119      125      147 </v>
   <v type="int" >        2       56       57      125      147 </v>
   <v type="int" >        2       23      124      125      129 </v>
   <v type="int" >        2       23      125      129      130 </v>
   <v type="int" >        2       12       23      125      130 </v>
   <v type="int" >        2       23       24      124      125 </v>
   <v type="int" >        2       13       23       24      125 </v>
   <v type="int" >        2       12       13       23      125 </v>
   <v type="int" >        2       32      123      124      128 </v>
   <v type="int" >        2       32      124      128      129 </v>
   <v type="int" >        2       23       32      124      129 </v>
   <v type="int" >        2       32       33      123      124 </v>
   <v type="int" >        2       24       32       33      124 </v>
   <v type="int" >        2       23       24       32      124 </v>
   <v type="int" >        2       39      122      123      127 </v>
   <v type="int" >        2       39      123      127      128 </v>
   <v type="int" >        2       32       39      123      128 </v>
   <v type="int" >        2       39       40      122      123 </v>
   <v type="int" >        2       33       39       40      123 </v>
   <v type="int" >        2       32       33       39      123 </v>
   <v type="int" >        2       44      121      122      126 </v>
   <v type="int" >        2       44      122      126      127 </v>
   <v type="int" >        2       39       44      122      127 </v>
   <v type="int" >        2       44       45      121      122 </v>
   <v type="int" >        2       40       44       45      122 </v>
   <v type="int" >        2       39       40       44      122 </v>
   <v type="int" >        2       45      120      121      121 </v>
   <v type="int" >        2       45      121      121      126 </v>
   <v type="int" >        2       44       45      121      126 </v>
   <v type="int" >        2       45       48      120      121 </v>
   <v type="int" >        2       45       45       48      121 </v>
   <v type="int" >        2       44       45       45      121 </v>
   <v type="int" >        2       46      114      115      120 </v>
[...]
       </set>
       <set comment="band 5">
        <r>  0.0921  0.0299  0.0362  0.0685  0.0000  0.0000  0.0000  0.0000  0.0000 </r>
        <r>  0.0921  0.0299  0.0362  0.0685  0.0000  0.0000  0.0000  0.0000  0.0000 </r>
       </set>
       <set comment="band 6">
        <r>  0.0002  0.0059  0.0214  0.0272  0.0000  0.0000  0.0000  0.0000  0.0000 </r>
        <r>  0.0002  0.0059  0.0214  0.0272  0.0000  0.0000  0.0000  0.0000  0.0000 </r>
       </set>
       <set comment="band 7">
        <r>  0.0787  0.0059  0.0648  0.0565  0.0000  0.0000  0.0000  0.0000  0.0000 </r>
        <r>  0.0787  0.0059  0.0648  0.0565  0.0000  0.0000  0.0000  0.0000  0.0000 </r>
       </set>
       <set comment="band 8">
        <r>  0.0265  0.0518  0.0622  0.0576  0.0000  0.0000  0.0000  0.0000  0.0000 </r>
        <r>  0.0265  0.0518  0.0622  0.0576  0.0000  0.0000  0.0000  0.0000  0.0000 </r>
       </set>
      </set>
      <set comment="kpoint 404">
       <set comment="band 1">
        <r>  0.2439  0.0022  0.0005  0.0106  0.0000  0.0000  0.0000  0.0000  0.0000 </r>
        <r>  0.2439  0.0022  0.0005  0.0106  0.0000  0.0000  0.0000  0.0000  0.0000 </r>
       </set>
       <set comment="band 2">
        <r>  0.1353  0.0376  0.0125  0.0257  0.0000  0.0000  0.0000  0.0000  0.0000 </r>
        <r>  0.1353  0.0376  0.0125  0.0257  0.0000  0.0000  0.0000  0.0000  0.0000 </r>
       </set>
       <set comment="band 3">
        <r>  0.0007  0.1014  0.0168  0.0318  0.0000  0.0000  0.0000  0.0000  0.0000 </r>
        <r>  0.0007  0.1014  0.0168  0.0318  0.0000  0.0000  0.0000  0.0000  0.0000 </r>
       </set>
       <set comment="band 4">
        <r>  0.0286  0.0272  0.0861  0.0386  0.0000  0.0000  0.0000  0.0000  0.0000 </r>
        <r>  0.0286  0.0272  0.0861  0.0386  0.0000  0.0000  0.0000  0.0000  0.0000 </r>
       </set>
       <set comment="band 5">
        <r>  0.0264  0.0356  0.0545  0.0556  0.0000  0.0000  0.0000  0.0000  0.0000 </r>
        <r>  0.0264  0.0356  0.0545  0.0556  0.0000  0.0000  0.0000  0.0000  0.0000 </r>
       </set>
       <set comment="band 6">
        <r>  0.0888  0.0620  0.0291  0.0144  0.0000  0.0000  0.0000  0.0000  0.0000 </r>
        <r>  0.0888  0.0620  0.0291  0.0144  0.0000  0.0000  0.0000  0.0000  0.0000 </r>
       </set>
       <set comment="band 7">
        <r>  0.0000  0.0145  0.0103  0.0931  0.0000  0.0000  0.0000  0.0000  0.0000 </r>
        <r>  0.0000  0.0145  0.0103  0.0931  0.0000  0.0000  0.0000  0.0000  0.0000 </r>
       </set>
       <set comment="band 8">
        <r>  0.0554  0.0828  0.0589  0.0178  0.0000  0.0000  0.0000  0.0000  0.0000 </r>
        <r>  0.0554  0.0828  0.0589  0.0178  0.0000  0.0000  0.0000  0.0000  0.0000 </r>
       </set>
      </set>
      <set comment="kpoint 405">
       <set comment="band 1">
        <r>  0.1851  0.0306  0.0030  0.0043  0.0000  0.0000  0.0000  0.0000  0.0000 </r>
        <r>  0.1851  0.0306  0.0030  0.0043  0.0000  0.0000  0.0000  0.0000  0.0000 </r>
       </set>
       <set comment="band 2">
        <r>  0.0922  0.0855  0.0151  0.0036  0.0000  0.0000  0.0000  0.0000  0.0000 </r>
        <r>  0.0922  0.0855  0.0151  0.0036  0.0000  0.0000  0.0000  0.0000  0.0000 </r>
       </set>
       <set comment="band 3">
        <r>  0.0805  0.0354  0.0109  0.0693  0.0000  0.0000  0.0000  0.0000  0.0000 </r>
        <r>  0.0805  0.0354  0.0109  0.0693  0.0000  0.0000  0.0000  0.0000  0.0000 </r>
       </set>
       <set comment="band 4">
        <r>  0.0084  0.0734  0.1034  0.0099  0.0000  0.0000  0.0000  0.0000  0.0000 </r>
        <r>  0.0084  0.0734  0.1034  0.0099  0.0000  0.0000  0.0000  0.0000  0.0000 </r>
       </set>
       <set comment="band 5">
        <r>  0.0230  0.0194  0.0631  0.0885  0.0000  0.0000  0.0000  0.0000  0.0000 </r>
        <r>  0.0230  0.0194  0.0631  0.0885  0.0000  0.0000  0.0000  0.0000  0.0000 </r>
       </set>
       <set comment="band 6">
        <r>  0.1231  0.0239  0.0025  0.0202  0.0000  0.0000  0.0000  0.0000  0.0000 </r>
        <r>  0.1231  0.0239  0.0025  0.0202  0.0000  0.0000  0.0000  0.0000  0.0000 </r>
       </set>
       <set comment="band 7">
        <r>  0.0156  0.0009  0.0231  0.0800  0.0000  0.0000  0.0000  0.0000  0.0000 </r>
        <r>  0.0156  0.0009  0.0231  0.0800  0.0000  0.0000  0.0000  0.0000  0.0000 </r>
       </set>
       <set comment="band 8">
        <r>  0.0544  0.0866  0.0468  0.0073  0.0000  0.0000  0.0000  0.0000  0.0000 </r>
        <r>  0.0544  0.0866  0.0468  0.0073  0.0000  0.0000  0.0000  0.0000  0.0000 </r>
       </set>
      </set>
      <set comment="kpoint 406">
       <set comment="band 1">
        <r>  0.1667  0.0348  0.0061  0.0022  0.0000  0.0000  0.0000  0.0000  0.0000 </r>
        <r>  0.1667  0.0348  0.0061  0.0022  0.0000  0.0000  0.0000  0.0000  0.0000 </r>
       </set>
       <set comment="band 2">
        <r>  0.1001  0.0840  0.0169  0.0038  0.0000  0.0000  0.0000  0.0000  0.0000 </r>
        <r>  0.1001  0.0840  0.0169  0.0038  0.0000  0.0000  0.0000  0.0000  0.0000 </r>
       </set>
       <set comment="band 3">
        <r>  0.0876  0.0239  0.0202  0.0809  0.0000  0.0000  0.0000  0.0000  0.0000 </r>
        <r>  0.0876  0.0239  0.0202  0.0809  0.0000  0.0000  0.0000  0.0000  0.0000 </r>
       </set>
       <set comment="band 4">
        <r>  0.0198  0.0863  0.0733  0.0158  0.0000  0.0000  0.0000  0.0000  0.0000 </r>
        <r>  0.0198  0.0863  0.0733  0.0158  0.0000  0.0000  0.0000  0.0000  0.0000 </r>
       </set>
       <set comment="band 5">
        <r>  0.0563  0.0371  0.0386  0.0852  0.0000  0.0000  0.0000  0.0000  0.0000 </r>
        <r>  0.0563  0.0371  0.0386  0.0852  0.0000  0.0000  0.0000  0.0000  0.0000 </r>
       </set>
       <set comment="band 6">
        <r>  0.0223  0.0022  0.0070  0.0700  0.0000  0.0000  0.0000  0.0000  0.0000 </r>
        <r>  0.0223  0.0022  0.0070  0.0700  0.0000  0.0000  0.0000  0.0000  0.0000 </r>
       </set>
       <set comment="band 7">
        <r>  0.0811  0.0093  0.0717  0.0120  0.0000  0.0000  0.0000  0.0000  0.0000 </r>
        <r>  0.0811  0.0093  0.0717  0.0120  0.0000  0.0000  0.0000  0.0000  0.0000 </r>
       </set>
       <set comment="band 8">
        <r>  0.0400  0.0708  0.0437  0.0198  0.0000  0.0000  0.0000  0.0000  0.0000 </r>
        <r>  0.0400  0.0708  0.0437  0.0198  0.0000  0.0000  0.0000  0.0000  0.0000 </r>
       </set>
      </set>
      <set comment="kpoint 407">
       <set comment="band 1">
        <r>  0.1656  0.0300  0.0090  0.0006  0.0000  0.0000  0.0000  0.0000  0.0000 </r>
        <r>  0.1656  0.0300  0.0090  0.0006  0.0000  0.0000  0.0000  0.0000  0.0000 </r>
       </set>
       <set comment="band 2">
        <r>  0.1559  0.0179  0.0637  0.0055  0.0000  0.0000  0.0000  0.0000  0.0000 </r>
        <r>  0.1559  0.0179  0.0637  0.0055  0.0000  0.0000  0.0000  0.0000  0.0000 </r>
       </set>
       <set comment="band 3">
        <r>  0.0242  0.1251  0.0190  0.0008  0.0000  0.0000  0.0000  0.0000  0.0000 </r>
        <r>  0.0242  0.1251  0.0190  0.0008  0.0000  0.0000  0.0000  0.0000  0.0000 </r>
       </set>
       <set comment="band 4">
        <r>  0.0109  0.0236  0.0105  0.1565  0.0000  0.0000  0.0000  0.0000  0.0000 </r>
        <r>  0.0109  0.0236  0.0105  0.1565  0.0000  0.0000  0.0000  0.0000  0.0000 </r>
       </set>
       <set comment="band 5">
        <r>  0.0837  0.0434  0.0168  0.0508  0.0000  0.0000  0.0000  0.0000  0.0000 </r>
        <r>  0.0837  0.0434  0.0168  0.0508  0.0000  0.0000  0.0000  0.0000  0.0000 </r>
       </set>
       <set comment="band 6">
        <r>  0.0021  0.0354  0.0530  0.0033  0.0000  0.0000  0.0000  0.0000  0.0000 </r>
        <r>  0.0021  0.0354  0.0530  0.0033  0.0000  0.0000  0.0000  0.0000  0.0000 </r>
       </set>
       <set comment="band 7">
        <r>  0.1143  0.0122  0.0866  0.0570  0.0000  0.0000  0.0000  0.0000  0.0000 </r>
        <r>  0.1143  0.0122  0.0866  0.0570  0.0000  0.0000  0.0000  0.0000  0.0000 </r>
       </set>
       <set comment="band 8">
        <r>  0.0166  0.0393  0.0493  0.0783  0.0000  0.0000  0.0000  0.0000  0.0000 </r>
        <r>  0.0166  0.0393  0.0493  0.0783  0.0000  0.0000  0.0000  0.0000  0.0000 </r>
       </set>
      </set>
      <set comment="kpoint 408">
       <set comment="band 1">
        <r>  0.1663  0.0317  0.0062  0.0051  0.0000  0.0000  0.0000  0.0000  0.0000 </r>
        <r>  0.1663  0.0317  0.0062  0.0051  0.0000  0.0000  0.0000  0.0000  0.0000 </r>
       </set>
       <set comment="band 2">
        <r>  0.1250  0.0394  0.0261  0.0303  0.0000  0.0000  0.0000  0.0000  0.0000 </r>
        <r>  0.1250  0.0394  0.0261  0.0303  0.0000  0.0000  0.0000  0.0000  0.0000 </r>
       </set>
       <set comment="band 3">
        <r>  0.0639  0.0752  0.0084  0.0474  0.0000  0.0000  0.0000  0.0000  0.0000 </r>
        <r>  0.0639  0.0752  0.0084  0.0474  0.0000  0.0000  0.0000  0.0000  0.0000 </r>
       </set>
       <set comment="band 4">
        <r>  0.0210  0.0834  0.0764  0.0130  0.0000  0.0000  0.0000  0.0000  0.0000 </r>
        <r>  0.0210  0.0834  0.0764  0.0130  0.0000  0.0000  0.0000  0.0000  0.0000 </r>
       </set>
       <set comment="band 5">
        <r>  0.0226  0.0477  0.0392  0.1004  0.0000  0.0000  0.0000  0.0000  0.0000 </r>
        <r>  0.0226  0.0477  0.0392  0.1004  0.0000  0.0000  0.0000  0.0000  0.0000 </r>
       </set>
       <set comment="band 6">
        <r>  0.1007  0.0061  0.0328  0.0302  0.0000  0.0000  0.0000  0.0000  0.0000 </r>
        <r>  0.1007  0.0061  0.0328  0.0302  0.0000  0.0000  0.0000  0.0000  0.0000 </r>
       </set>
       <set comment="band 7">
        <r>  0.0009  0.0114  0.0379  0.0429  0.0000  0.0000  0.0000  0.0000  0.0000 </r>
        <r>  0.0009  0.0114  0.0379  0.0429  0.0000  0.0000  0.0000  0.0000  0.0000 </r>
       </set>
       <set comment="band 8">
        <r>  0.0776  0.0506  0.0444  0.0128  0.0000  0.0000  0.0000  0.0000  0.0000 </r>
        <r>  0.0776  0.0506  0.0444  0.0128  0.0000  0.0000  0.0000  0.0000  0.0000 </r>
       </set>
      </set>
      <set comment="kpoint 409">
       <set comment="band 1">
        <r>  0.1663  0.0269  0.0092  0.0025  0.0000  0.0000  0.0000  0.0000  0.0000 </r>
        <r>  0.1663  0.0269  0.0092  0.0025  0.0000  0.0000  0.0000  0.0000  0.0000 </r>
       </set>
       <set comment="band 2">
        <r>  0.1355  0.0112  0.0812  0.0051  0.0000  0.0000  0.0000  0.0000  0.0000 </r>
        <r>  0.1355  0.0112  0.0812  0.0051  0.0000  0.0000  0.0000  0.0000  0.0000 </r>
       </set>
       <set comment="band 3">
        <r>  0.0422  0.1309  0.0051  0.0078  0.0000  0.0000  0.0000  0.0000  0.0000 </r>
        <r>  0.0422  0.1309  0.0051  0.0078  0.0000  0.0000  0.0000  0.0000  0.0000 </r>
       </set>
       <set comment="band 4">
        <r>  0.0349  0.0489  0.0021  0.1045  0.0000  0.0000  0.0000  0.0000  0.0000 </r>
        <r>  0.0349  0.0489  0.0021  0.1045  0.0000  0.0000  0.0000  0.0000  0.0000 </r>
       </set>
       <set comment="band 5">
        <r>  0.0305  0.0359  0.0123  0.1159  0.0000  0.0000  0.0000  0.0000  0.0000 </r>
        <r>  0.0305  0.0359  0.0123  0.1159  0.0000  0.0000  0.0000  0.0000  0.0000 </r>
       </set>
       <set comment="band 6">
        <r>  0.0995  0.0426  0.0626  0.0020  0.0000  0.0000  0.0000  0.0000  0.0000 </r>
        <r>  0.0995  0.0426  0.0626  0.0020  0.0000  0.0000  0.0000  0.0000  0.0000 </r>
       </set>
       <set comment="band 7">
        <r>  0.0529  0.0162  0.0630  0.0199  0.0000  0.0000  0.0000  0.0000  0.0000 </r>
        <r>  0.0529  0.0162  0.0630  0.0199  0.0000  0.0000  0.0000  0.0000  0.0000 </r>
       </set>
       <set comment="band 8">
        <r>  0.0013  0.0257  0.0587  0.0332  0.0000  0.0000  0.0000  0.0000  0.0000 </r>
        <r>  0.0013  0.0257  0.0587  0.0332  0.0000  0.0000  0.0000  0.0000  0.0000 </r>
       </set>
      </set>
      <set comment="kpoint 410">
       <set comment="band 1">
        <r>  0.1694  0.0203  0.0124  0.0007  0.0000  0.0000  0.0000  0.0000  0.0000 </r>
        <r>  0.1694  0.0203  0.0124  0.0007  0.0000  0.0000  0.0000  0.0000  0.0000 </r>
       </set>
       <set comment="band 2">
        <r>  0.1302  0.0160  0.0686  0.0020  0.0000  0.0000  0.0000  0.0000  0.0000 </r>
        <r>  0.1302  0.0160  0.0686  0.0020  0.0000  0.0000  0.0000  0.0000  0.0000 </r>
       </set>
       <set comment="band 3">
        <r>  0.0509  0.1146  0.0040  0.0362  0.0000  0.0000  0.0000  0.0000  0.0000 </r>
        <r>  0.0509  0.1146  0.0040  0.0362  0.0000  0.0000  0.0000  0.0000  0.0000 </r>
       </set>
       <set comment="band 4">
        <r>  0.0002  0.0273  0.0146  0.1412  0.0000  0.0000  0.0000  0.0000  0.0000 </r>
        <r>  0.0002  0.0273  0.0146  0.1412  0.0000  0.0000  0.0000  0.0000  0.0000 </r>
       </set>
       <set comment="band 5">
        <r>  0.0656  0.0558  0.0044  0.0496  0.0000  0.0000  0.0000  0.0000  0.0000 </r>
        <r>  0.0656  0.0558  0.0044  0.0496  0.0000  0.0000  0.0000  0.0000  0.0000 </r>
       </set>
       <set comment="band 6">
        <r>  0.0834  0.0445  0.0452  0.0259  0.0000  0.0000  0.0000  0.0000  0.0000 </r>
        <r>  0.0834  0.0445  0.0452  0.0259  0.0000  0.0000  0.0000  0.0000  0.0000 </r>
       </set>
       <set comment="band 7">
        <r>  0.0183  0.0027  0.0747  0.0513  0.0000  0.0000  0.0000  0.0000  0.0000 </r>
        <r>  0.0183  0.0027  0.0747  0.0513  0.0000  0.0000  0.0000  0.0000  0.0000 </r>
       </set>
       <set comment="band 8">
        <r>  0.0485  0.0486  0.0513  0.0521  0.0000  0.0000  0.0000  0.0000  0.0000 </r>
        <r>  0.0485  0.0486  0.0513  0.0521  0.0000  0.0000  0.0000  0.0000  0.0000 </r>
       </set>
      </set>
      <set comment="kpoint 411">
       <set comment="band 1">
        <r>  0.1699  0.0175  0.0125  0.0028  0.0000  0.0000  0.0000  0.0000  0.0000 </r>
        <r>  0.1699  0.0175  0.0125  0.0028  0.0000  0.0000  0.0000  0.0000  0.0000 </r>
       </set>
       <set comment="band 2">
        <r>  0.1275  0.0150  0.0699  0.0028  0.0000  0.0000  0.0000  0.0000  0.0000 </r>
        <r>  0.1275  0.0150  0.0699  0.0028  0.0000  0.0000  0.0000  0.0000  0.0000 </r>
       </set>
       <set comment="band 3">
        <r>  0.0327  0.0710  0.0037  0.1092  0.0000  0.0000  0.0000  0.0000  0.0000 </r>
        <r>  0.0327  0.0710  0.0037  0.1092  0.0000  0.0000  0.0000  0.0000  0.0000 </r>
       </set>
       <set comment="band 4">
        <r>  0.0280  0.1046  0.0044  0.0466  0.0000  0.0000  0.0000  0.0000  0.0000 </r>
        <r>  0.0280  0.1046  0.0044  0.0466  0.0000  0.0000  0.0000  0.0000  0.0000 </r>
       </set>
       <set comment="band 5">
        <r>  0.0217  0.0571  0.0005  0.0804  0.0000  0.0000  0.0000  0.0000  0.0000 </r>
        <r>  0.0217  0.0571  0.0005  0.0804  0.0000  0.0000  0.0000  0.0000  0.0000 </r>
       </set>
       <set comment="band 6">
        <r>  0.1283  0.0108  0.0594  0.0057  0.0000  0.0000  0.0000  0.0000  0.0000 </r>
        <r>  0.1283  0.0108  0.0594  0.0057  0.0000  0.0000  0.0000  0.0000  0.0000 </r>
       </set>
       <set comment="band 7">
        <r>  0.0103  0.0207  0.0003  0.1012  0.0000  0.0000  0.0000  0.0000  0.0000 </r>
        <r>  0.0103  0.0207  0.0003  0.1012  0.0000  0.0000  0.0000  0.0000  0.0000 </r>
       </set>
       <set comment="band 8">
        <r>  0.0050  0.0299  0.1426  0.0049  0.0000  0.0000  0.0000  0.0000  0.0000 </r>
        <r>  0.0050  0.0299  0.1426  0.0049  0.0000  0.0000  0.0000  0.0000  0.0000 </r>
       </set>
      </set>
      <set comment="kpoint 412">
       <set comment="band 1">
        <r>  0.1732  0.0114  0.0161  0.0007  0.0000  0.0000  0.0000  0.0000  0.0000 </r>
        <r>  0.1732  0.0114  0.0161  0.0007  0.0000  0.0000  0.0000  0.0000  0.0000 </r>
       </set>
       <set comment="band 2">
        <r>  0.1373  0.0102  0.0617  0.0011  0.0000  0.0000  0.0000  0.0000  0.0000 </r>
        <r>  0.1373  0.0102  0.0617  0.0011  0.0000  0.0000  0.0000  0.0000  0.0000 </r>
       </set>
       <set comment="band 3">
        <r>  0.0145  0.0300  0.0054  0.1611  0.0000  0.0000  0.0000  0.0000  0.0000 </r>
        <r>  0.0145  0.0300  0.0054  0.1611  0.0000  0.0000  0.0000  0.0000  0.0000 </r>
       </set>
       <set comment="band 4">
        <r>  0.0096  0.1194  0.0137  0.0346  0.0000  0.0000  0.0000  0.0000  0.0000 </r>
        <r>  0.0096  0.1194  0.0137  0.0346  0.0000  0.0000  0.0000  0.0000  0.0000 </r>
       </set>
       <set comment="band 5">
        <r>  0.0475  0.0514  0.0058  0.0677  0.0000  0.0000  0.0000  0.0000  0.0000 </r>
        <r>  0.0475  0.0514  0.0058  0.0677  0.0000  0.0000  0.0000  0.0000  0.0000 </r>
       </set>
       <set comment="band 6">
        <r>  0.0937  0.0339  0.0431  0.0146  0.0000  0.0000  0.0000  0.0000  0.0000 </r>
        <r>  0.0937  0.0339  0.0431  0.0146  0.0000  0.0000  0.0000  0.0000  0.0000 </r>
       </set>
       <set comment="band 7">
        <r>  0.0395  0.0221  0.0254  0.0600  0.0000  0.0000  0.0000  0.0000  0.0000 </r>
        <r>  0.0395  0.0221  0.0254  0.0600  0.0000  0.0000  0.0000  0.0000  0.0000 </r>
       </set>
       <set comment="band 8">
        <r>  0.0377  0.0255  0.1227  0.0128  0.0000  0.0000  0.0000  0.0000  0.0000 </r>
        <r>  0.0377  0.0255  0.1227  0.0128  0.0000  0.0000  0.0000  0.0000  0.0000 </r>
       </set>
      </set>
      <set comment="kpoint 413">
       <set comment="band 1">
        <r>  0.1753  0.0047  0.0201  0.0007  0.0000  0.0000  0.0000  0.0000  0.0000 </r>
        <r>  0.1753  0.0047  0.0201  0.0007  0.0000  0.0000  0.0000  0.0000  0.0000 </r>
       </set>
       <set comment="band 2">
        <r>  0.1465  0.0045  0.0554  0.0007  0.0000  0.0000  0.0000  0.0000  0.0000 </r>
        <r>  0.1465  0.0045  0.0554  0.0007  0.0000  0.0000  0.0000  0.0000  0.0000 </r>
       </set>
       <set comment="band 3">
        <r>  0.0010  0.0306  0.0003  0.1703  0.0000  0.0000  0.0000  0.0000  0.0000 </r>
        <r>  0.0010  0.0306  0.0003  0.1703  0.0000  0.0000  0.0000  0.0000  0.0000 </r>
       </set>
       <set comment="band 4">
        <r>  0.0380  0.0433  0.0507  0.0349  0.0000  0.0000  0.0000  0.0000  0.0000 </r>
        <r>  0.0380  0.0433  0.0507  0.0349  0.0000  0.0000  0.0000  0.0000  0.0000 </r>
       </set>
       <set comment="band 5">
        <r>  0.0552  0.0238  0.0180  0.1041  0.0000  0.0000  0.0000  0.0000  0.0000 </r>
        <r>  0.0552  0.0238  0.0180  0.1041  0.0000  0.0000  0.0000  0.0000  0.0000 </r>
       </set>
       <set comment="band 6">
        <r>  0.0049  0.1100  0.0107  0.0171  0.0000  0.0000  0.0000  0.0000  0.0000 </r>
        <r>  0.0049  0.1100  0.0107  0.0171  0.0000  0.0000  0.0000  0.0000  0.0000 </r>
       </set>
       <set comment="band 7">
        <r>  0.0487  0.0719  0.0001  0.0262  0.0000  0.0000  0.0000  0.0000  0.0000 </r>
        <r>  0.0487  0.0719  0.0001  0.0262  0.0000  0.0000  0.0000  0.0000  0.0000 </r>
       </set>
       <set comment="band 8">
        <r>  0.0915  0.0048  0.1166  0.0008  0.0000  0.0000  0.0000  0.0000  0.0000 </r>
        <r>  0.0915  0.0048  0.1166  0.0008  0.0000  0.0000  0.0000  0.0000  0.0000 </r>
       </set>
      </set>
     </set>
    </set>
   </array>
  </projected>
 </calculation>
 <structure name="finalpos" >
  <crystal>
   <varray name="basis" >
    <v>       3.64570593       0.00000000       0.00000000 </v>
    <v>      -2.66592831       2.48676456       0.00000000 </v>
    <v>      -0.48988549      -1.24337387       3.39193231 </v>
   </varray>
   <i name="volume">     30.75130000 </i>
   <varray name="rec_basis" >
    <v>       0.27429530       0.29405743       0.14740761 </v>
    <v>      -0.00000000       0.40212894       0.14740761 </v>
    <v>       0.00000000      -0.00000000       0.29481720 </v>
   </varray>
  </crystal>
  <varray name="positions" >
   <v>       0.75000000       0.25000000       0.50000000 </v>
   <v>       0.00000000       0.00000000       0.00000000 </v>
  </varray>
 </structure>
</modeling>
