si-sym141                               
           1
     3.645706    0.000000    0.000000
    -2.665928    2.486765    0.000000
    -0.489885   -1.243374    3.391932
   Si
     2
Direct configuration=     1
   0.75000000  0.25000000  0.50000000
   0.00000000  0.00000000  0.00000000
