   1   1   0   0
  0.1660088E+02  0.2863400E-09  0.2863400E-09  0.2863400E-09  0.5000000E-15
   1.0000000000000000E-004
  CAR 
 Al                                      
     24.46252178     -5.15632976  301      8.06471463      1.00000000
     -5.156  0.0000E+00  0.0000E+00
     -5.058  0.0000E+00  0.0000E+00
     -4.959  0.0000E+00  0.0000E+00
     -4.860  0.0000E+00  0.0000E+00
     -4.761  0.0000E+00  0.0000E+00
     -4.663  0.0000E+00  0.0000E+00
     -4.564  0.0000E+00  0.0000E+00
     -4.465  0.0000E+00  0.0000E+00
     -4.366  0.0000E+00  0.0000E+00
     -4.268  0.0000E+00  0.0000E+00
     -4.169  0.0000E+00  0.0000E+00
     -4.070  0.0000E+00  0.0000E+00
     -3.972  0.0000E+00  0.0000E+00
     -3.873  0.0000E+00  0.0000E+00
     -3.774  0.0000E+00  0.0000E+00
     -3.675  0.0000E+00  0.0000E+00
     -3.577  0.0000E+00  0.0000E+00
     -3.478  0.0000E+00  0.0000E+00
     -3.379  0.0000E+00  0.0000E+00
     -3.280  0.0000E+00  0.0000E+00
     -3.182  0.0000E+00  0.0000E+00
     -3.083  0.1061E-02  0.2593E-04
     -2.984  0.5843E-02  0.3351E-03
     -2.886  0.1447E-01  0.1306E-02
     -2.787  0.2695E-01  0.3320E-02
     -2.688  0.4328E-01  0.6755E-02
     -2.589  0.6345E-01  0.1199E-01
     -2.491  0.8748E-01  0.1941E-01
     -2.392  0.1088E+00  0.2935E-01
     -2.293  0.9741E-01  0.3945E-01
     -2.194  0.9505E-01  0.4888E-01
     -2.096  0.1000E+00  0.5848E-01
     -1.997  0.1058E+00  0.6864E-01
     -1.898  0.1116E+00  0.7937E-01
     -1.800  0.1176E+00  0.9069E-01
     -1.701  0.1238E+00  0.1026E+00
     -1.602  0.1301E+00  0.1151E+00
     -1.503  0.1365E+00  0.1283E+00
     -1.405  0.1430E+00  0.1421E+00
     -1.306  0.1497E+00  0.1565E+00
     -1.207  0.1565E+00  0.1716E+00
     -1.108  0.1632E+00  0.1874E+00
     -1.010  0.1692E+00  0.2038E+00
     -0.911  0.1742E+00  0.2208E+00
     -0.812  0.1784E+00  0.2382E+00
     -0.714  0.1816E+00  0.2560E+00
     -0.615  0.1839E+00  0.2741E+00
     -0.516  0.1854E+00  0.2923E+00
     -0.417  0.1860E+00  0.3106E+00
     -0.319  0.1880E+00  0.3291E+00
     -0.220  0.1910E+00  0.3478E+00
     -0.121  0.1947E+00  0.3668E+00
     -0.022  0.1985E+00  0.3862E+00
      0.076  0.2023E+00  0.4060E+00
      0.175  0.2061E+00  0.4262E+00
      0.274  0.2100E+00  0.4467E+00
      0.373  0.2140E+00  0.4676E+00
      0.471  0.2179E+00  0.4890E+00
      0.570  0.2219E+00  0.5107E+00
      0.669  0.2260E+00  0.5328E+00
      0.767  0.2300E+00  0.5553E+00
      0.866  0.2341E+00  0.5782E+00
      0.965  0.2383E+00  0.6015E+00
      1.064  0.2425E+00  0.6253E+00
      1.162  0.2467E+00  0.6494E+00
      1.261  0.2510E+00  0.6740E+00
      1.360  0.2553E+00  0.6990E+00
      1.459  0.2597E+00  0.7244E+00
      1.557  0.2630E+00  0.7502E+00
      1.656  0.2655E+00  0.7763E+00
      1.755  0.2712E+00  0.8028E+00
      1.853  0.2799E+00  0.8299E+00
      1.952  0.2904E+00  0.8581E+00
      2.051  0.3029E+00  0.8874E+00
      2.150  0.3173E+00  0.9180E+00
      2.248  0.3336E+00  0.9501E+00
      2.347  0.3519E+00  0.9839E+00
      2.446  0.3720E+00  0.1020E+01
      2.545  0.3941E+00  0.1057E+01
      2.643  0.4180E+00  0.1097E+01
      2.742  0.4398E+00  0.1140E+01
      2.841  0.3983E+00  0.1181E+01
      2.939  0.3643E+00  0.1219E+01
      3.038  0.3378E+00  0.1254E+01
      3.137  0.3188E+00  0.1286E+01
      3.236  0.3073E+00  0.1317E+01
      3.334  0.3032E+00  0.1347E+01
      3.433  0.3050E+00  0.1377E+01
      3.532  0.3185E+00  0.1408E+01
      3.631  0.3298E+00  0.1440E+01
      3.729  0.3388E+00  0.1473E+01
      3.828  0.3453E+00  0.1506E+01
      3.927  0.3494E+00  0.1541E+01
      4.026  0.3512E+00  0.1575E+01
      4.124  0.3506E+00  0.1610E+01
      4.223  0.3476E+00  0.1644E+01
      4.322  0.3423E+00  0.1679E+01
      4.420  0.3345E+00  0.1712E+01
      4.519  0.3244E+00  0.1745E+01
      4.618  0.3119E+00  0.1776E+01
      4.717  0.2983E+00  0.1806E+01
      4.815  0.2865E+00  0.1835E+01
      4.914  0.2769E+00  0.1863E+01
      5.013  0.2692E+00  0.1890E+01
      5.112  0.2643E+00  0.1916E+01
      5.210  0.2630E+00  0.1942E+01
      5.309  0.2539E+00  0.1968E+01
      5.408  0.2412E+00  0.1992E+01
      5.506  0.2431E+00  0.2015E+01
      5.605  0.3757E+00  0.2045E+01
      5.704  0.3891E+00  0.2083E+01
      5.803  0.3846E+00  0.2121E+01
      5.901  0.3722E+00  0.2159E+01
      6.000  0.3751E+00  0.2195E+01
      6.099  0.3921E+00  0.2233E+01
      6.198  0.4049E+00  0.2272E+01
      6.296  0.4135E+00  0.2313E+01
      6.395  0.4180E+00  0.2354E+01
      6.494  0.4189E+00  0.2395E+01
      6.592  0.4163E+00  0.2436E+01
      6.691  0.4103E+00  0.2477E+01
      6.790  0.4007E+00  0.2517E+01
      6.889  0.3880E+00  0.2556E+01
      6.987  0.3795E+00  0.2594E+01
      7.086  0.3789E+00  0.2632E+01
      7.185  0.3861E+00  0.2669E+01
      7.284  0.3889E+00  0.2708E+01
      7.382  0.3870E+00  0.2746E+01
      7.481  0.3844E+00  0.2784E+01
      7.580  0.3808E+00  0.2822E+01
      7.679  0.3763E+00  0.2859E+01
      7.777  0.3709E+00  0.2896E+01
      7.876  0.3646E+00  0.2933E+01
      7.975  0.3574E+00  0.2968E+01
      8.073  0.3493E+00  0.3003E+01
      8.172  0.3402E+00  0.3037E+01
      8.271  0.3303E+00  0.3070E+01
      8.370  0.3207E+00  0.3102E+01
      8.468  0.3186E+00  0.3134E+01
      8.567  0.3253E+00  0.3166E+01
      8.666  0.3407E+00  0.3198E+01
      8.765  0.3653E+00  0.3233E+01
      8.863  0.3881E+00  0.3270E+01
      8.962  0.4054E+00  0.3310E+01
      9.061  0.4222E+00  0.3350E+01
      9.159  0.4364E+00  0.3393E+01
      9.258  0.4479E+00  0.3436E+01
      9.357  0.4567E+00  0.3481E+01
      9.456  0.4620E+00  0.3527E+01
      9.554  0.4651E+00  0.3572E+01
      9.653  0.4693E+00  0.3618E+01
      9.752  0.4738E+00  0.3665E+01
      9.851  0.4779E+00  0.3712E+01
      9.949  0.4817E+00  0.3759E+01
     10.048  0.4851E+00  0.3807E+01
     10.147  0.4883E+00  0.3855E+01
     10.245  0.4911E+00  0.3903E+01
     10.344  0.5048E+00  0.3953E+01
     10.443  0.5205E+00  0.4003E+01
     10.542  0.5348E+00  0.4055E+01
     10.640  0.5479E+00  0.4109E+01
     10.739  0.5597E+00  0.4163E+01
     10.838  0.5702E+00  0.4219E+01
     10.937  0.5733E+00  0.4276E+01
     11.035  0.4917E+00  0.4328E+01
     11.134  0.4751E+00  0.4375E+01
     11.233  0.4683E+00  0.4422E+01
     11.331  0.4618E+00  0.4468E+01
     11.430  0.4556E+00  0.4513E+01
     11.529  0.4510E+00  0.4558E+01
     11.628  0.4493E+00  0.4602E+01
     11.726  0.4490E+00  0.4647E+01
     11.825  0.4499E+00  0.4691E+01
     11.924  0.4520E+00  0.4735E+01
     12.023  0.4555E+00  0.4780E+01
     12.121  0.4602E+00  0.4825E+01
     12.220  0.4662E+00  0.4871E+01
     12.319  0.4735E+00  0.4918E+01
     12.418  0.4816E+00  0.4965E+01
     12.516  0.4901E+00  0.5013E+01
     12.615  0.4989E+00  0.5061E+01
     12.714  0.5079E+00  0.5111E+01
     12.812  0.5172E+00  0.5162E+01
     12.911  0.5268E+00  0.5213E+01
     13.010  0.5366E+00  0.5266E+01
     13.109  0.5361E+00  0.5319E+01
     13.207  0.5348E+00  0.5372E+01
     13.306  0.5342E+00  0.5424E+01
     13.405  0.5367E+00  0.5477E+01
     13.504  0.5436E+00  0.5531E+01
     13.602  0.5567E+00  0.5585E+01
     13.701  0.5777E+00  0.5641E+01
     13.800  0.6066E+00  0.5699E+01
     13.898  0.6432E+00  0.5761E+01
     13.997  0.6871E+00  0.5826E+01
     14.096  0.7383E+00  0.5897E+01
     14.195  0.6770E+00  0.5969E+01
     14.293  0.5718E+00  0.6030E+01
     14.392  0.5558E+00  0.6085E+01
     14.491  0.5581E+00  0.6140E+01
     14.590  0.5594E+00  0.6195E+01
     14.688  0.5587E+00  0.6251E+01
     14.787  0.5580E+00  0.6306E+01
     14.886  0.5572E+00  0.6361E+01
     14.984  0.5564E+00  0.6416E+01
     15.083  0.5555E+00  0.6471E+01
     15.182  0.5545E+00  0.6526E+01
     15.281  0.5534E+00  0.6580E+01
     15.379  0.5523E+00  0.6635E+01
     15.478  0.5511E+00  0.6689E+01
     15.577  0.5499E+00  0.6744E+01
     15.676  0.5498E+00  0.6798E+01
     15.774  0.5536E+00  0.6852E+01
     15.873  0.5546E+00  0.6907E+01
     15.972  0.5421E+00  0.6961E+01
     16.071  0.5307E+00  0.7014E+01
     16.169  0.5234E+00  0.7066E+01
     16.268  0.5191E+00  0.7118E+01
     16.367  0.5175E+00  0.7169E+01
     16.465  0.5187E+00  0.7220E+01
     16.564  0.5226E+00  0.7271E+01
     16.663  0.5237E+00  0.7323E+01
     16.762  0.5251E+00  0.7375E+01
     16.860  0.5283E+00  0.7427E+01
     16.959  0.5332E+00  0.7479E+01
     17.058  0.5392E+00  0.7532E+01
     17.157  0.5458E+00  0.7586E+01
     17.255  0.5520E+00  0.7640E+01
     17.354  0.5578E+00  0.7695E+01
     17.453  0.5631E+00  0.7750E+01
     17.551  0.5672E+00  0.7806E+01
     17.650  0.5720E+00  0.7862E+01
     17.749  0.5782E+00  0.7919E+01
     17.848  0.5857E+00  0.7976E+01
     17.946  0.6136E+00  0.8035E+01
     18.045  0.6409E+00  0.8097E+01
     18.144  0.6643E+00  0.8162E+01
     18.243  0.6840E+00  0.8228E+01
     18.341  0.6998E+00  0.8297E+01
     18.440  0.7118E+00  0.8366E+01
     18.539  0.7200E+00  0.8437E+01
     18.637  0.7244E+00  0.8508E+01
     18.736  0.7254E+00  0.8580E+01
     18.835  0.7240E+00  0.8652E+01
     18.934  0.7204E+00  0.8723E+01
     19.032  0.7144E+00  0.8794E+01
     19.131  0.7062E+00  0.8864E+01
     19.230  0.6956E+00  0.8933E+01
     19.329  0.6638E+00  0.9000E+01
     19.427  0.6297E+00  0.9064E+01
     19.526  0.5975E+00  0.9125E+01
     19.625  0.5664E+00  0.9182E+01
     19.724  0.5369E+00  0.9237E+01
     19.822  0.5091E+00  0.9288E+01
     19.921  0.4876E+00  0.9337E+01
     20.020  0.4675E+00  0.9385E+01
     20.118  0.4486E+00  0.9430E+01
     20.217  0.4310E+00  0.9473E+01
     20.316  0.4148E+00  0.9515E+01
     20.415  0.3994E+00  0.9555E+01
     20.513  0.3836E+00  0.9594E+01
     20.612  0.3669E+00  0.9631E+01
     20.711  0.3490E+00  0.9666E+01
     20.810  0.3305E+00  0.9700E+01
     20.908  0.3121E+00  0.9731E+01
     21.007  0.2939E+00  0.9761E+01
     21.106  0.2759E+00  0.9790E+01
     21.204  0.2580E+00  0.9816E+01
     21.303  0.2402E+00  0.9840E+01
     21.402  0.2218E+00  0.9863E+01
     21.501  0.2027E+00  0.9884E+01
     21.599  0.1829E+00  0.9903E+01
     21.698  0.1625E+00  0.9920E+01
     21.797  0.1413E+00  0.9935E+01
     21.896  0.1195E+00  0.9948E+01
     21.994  0.1155E+00  0.9960E+01
     22.093  0.1094E+00  0.9971E+01
     22.192  0.9864E-01  0.9981E+01
     22.290  0.8308E-01  0.9990E+01
     22.389  0.6055E-01  0.9997E+01
     22.488  0.0000E+00  0.1000E+02
     22.587  0.0000E+00  0.1000E+02
     22.685  0.0000E+00  0.1000E+02
     22.784  0.0000E+00  0.1000E+02
     22.883  0.0000E+00  0.1000E+02
     22.982  0.0000E+00  0.1000E+02
     23.080  0.0000E+00  0.1000E+02
     23.179  0.0000E+00  0.1000E+02
     23.278  0.0000E+00  0.1000E+02
     23.376  0.0000E+00  0.1000E+02
     23.475  0.0000E+00  0.1000E+02
     23.574  0.0000E+00  0.1000E+02
     23.673  0.0000E+00  0.1000E+02
     23.771  0.0000E+00  0.1000E+02
     23.870  0.0000E+00  0.1000E+02
     23.969  0.0000E+00  0.1000E+02
     24.068  0.0000E+00  0.1000E+02
     24.166  0.0000E+00  0.1000E+02
     24.265  0.0000E+00  0.1000E+02
     24.364  0.0000E+00  0.1000E+02
     24.463  0.0000E+00  0.1000E+02
