   1   1   0   0
  0.1660088E+02  0.2863400E-09  0.2863400E-09  0.2863400E-09  0.5000000E-15
   1.0000000000000000E-004
  CAR 
 Al atom                                 
     25.80924442     -5.15536172  301      7.95654991      1.00000000
     -5.155  0.0000E+00  0.0000E+00
     -5.052  0.0000E+00  0.0000E+00
     -4.949  0.0000E+00  0.0000E+00
     -4.846  0.0000E+00  0.0000E+00
     -4.743  0.0000E+00  0.0000E+00
     -4.639  0.0000E+00  0.0000E+00
     -4.536  0.0000E+00  0.0000E+00
     -4.433  0.0000E+00  0.0000E+00
     -4.330  0.0000E+00  0.0000E+00
     -4.226  0.0000E+00  0.0000E+00
     -4.123  0.0000E+00  0.0000E+00
     -4.020  0.0000E+00  0.0000E+00
     -3.917  0.0000E+00  0.0000E+00
     -3.814  0.0000E+00  0.0000E+00
     -3.710  0.0000E+00  0.0000E+00
     -3.607  0.0000E+00  0.0000E+00
     -3.504  0.0000E+00  0.0000E+00
     -3.401  0.0000E+00  0.0000E+00
     -3.297  0.0000E+00  0.0000E+00
     -3.194  0.0000E+00  0.0000E+00
     -3.091  0.2891E-01  0.9340E-03
     -2.988  0.4520E-01  0.4751E-02
     -2.885  0.5874E-01  0.1022E-01
     -2.781  0.7090E-01  0.1688E-01
     -2.678  0.7892E-01  0.2460E-01
     -2.575  0.8858E-01  0.3323E-01
     -2.472  0.9512E-01  0.4270E-01
     -2.369  0.1027E+00  0.5291E-01
     -2.265  0.1095E+00  0.6390E-01
     -2.162  0.1154E+00  0.7550E-01
     -2.059  0.1220E+00  0.8775E-01
     -1.956  0.1276E+00  0.1007E+00
     -1.852  0.1329E+00  0.1141E+00
     -1.749  0.1385E+00  0.1281E+00
     -1.646  0.1439E+00  0.1427E+00
     -1.543  0.1484E+00  0.1578E+00
     -1.440  0.1533E+00  0.1733E+00
     -1.336  0.1584E+00  0.1894E+00
     -1.233  0.1630E+00  0.2060E+00
     -1.130  0.1671E+00  0.2231E+00
     -1.027  0.1715E+00  0.2405E+00
     -0.924  0.1761E+00  0.2585E+00
     -0.820  0.1804E+00  0.2769E+00
     -0.717  0.1842E+00  0.2957E+00
     -0.614  0.1882E+00  0.3149E+00
     -0.511  0.1923E+00  0.3345E+00
     -0.407  0.1966E+00  0.3546E+00
     -0.304  0.2002E+00  0.3751E+00
     -0.201  0.2038E+00  0.3960E+00
     -0.098  0.2075E+00  0.4172E+00
      0.005  0.2113E+00  0.4388E+00
      0.109  0.2153E+00  0.4608E+00
      0.212  0.2187E+00  0.4832E+00
      0.315  0.2220E+00  0.5059E+00
      0.418  0.2255E+00  0.5290E+00
      0.521  0.2290E+00  0.5525E+00
      0.625  0.2327E+00  0.5763E+00
      0.728  0.2362E+00  0.6005E+00
      0.831  0.2393E+00  0.6251E+00
      0.934  0.2425E+00  0.6499E+00
      1.038  0.2458E+00  0.6751E+00
      1.141  0.2492E+00  0.7007E+00
      1.244  0.2526E+00  0.7266E+00
      1.347  0.2558E+00  0.7528E+00
      1.450  0.2588E+00  0.7794E+00
      1.554  0.2619E+00  0.8063E+00
      1.657  0.2651E+00  0.8334E+00
      1.760  0.2683E+00  0.8610E+00
      1.863  0.2716E+00  0.8888E+00
      1.966  0.2748E+00  0.9170E+00
      2.070  0.2777E+00  0.9455E+00
      2.173  0.2807E+00  0.9744E+00
      2.276  0.2837E+00  0.1003E+01
      2.379  0.2868E+00  0.1033E+01
      2.483  0.2900E+00  0.1063E+01
      2.586  0.2933E+00  0.1093E+01
      2.689  0.2964E+00  0.1123E+01
      2.792  0.2996E+00  0.1154E+01
      2.895  0.3032E+00  0.1185E+01
      2.999  0.3083E+00  0.1217E+01
      3.102  0.3175E+00  0.1249E+01
      3.205  0.3297E+00  0.1282E+01
      3.308  0.3320E+00  0.1317E+01
      3.412  0.3195E+00  0.1350E+01
      3.515  0.3206E+00  0.1383E+01
      3.618  0.3074E+00  0.1416E+01
      3.721  0.2991E+00  0.1447E+01
      3.824  0.3178E+00  0.1479E+01
      3.928  0.3333E+00  0.1513E+01
      4.031  0.3317E+00  0.1547E+01
      4.134  0.3319E+00  0.1581E+01
      4.237  0.3394E+00  0.1616E+01
      4.340  0.3465E+00  0.1651E+01
      4.444  0.3571E+00  0.1688E+01
      4.547  0.3469E+00  0.1724E+01
      4.650  0.3511E+00  0.1760E+01
      4.753  0.3704E+00  0.1797E+01
      4.857  0.3738E+00  0.1836E+01
      4.960  0.3882E+00  0.1875E+01
      5.063  0.3919E+00  0.1916E+01
      5.166  0.3905E+00  0.1956E+01
      5.269  0.3823E+00  0.1996E+01
      5.373  0.3844E+00  0.2035E+01
      5.476  0.3745E+00  0.2075E+01
      5.579  0.3625E+00  0.2112E+01
      5.682  0.3705E+00  0.2150E+01
      5.785  0.3734E+00  0.2188E+01
      5.889  0.3646E+00  0.2226E+01
      5.992  0.3432E+00  0.2263E+01
      6.095  0.3596E+00  0.2298E+01
      6.198  0.3325E+00  0.2333E+01
      6.302  0.3253E+00  0.2366E+01
      6.405  0.3403E+00  0.2401E+01
      6.508  0.3678E+00  0.2437E+01
      6.611  0.3813E+00  0.2476E+01
      6.714  0.3760E+00  0.2515E+01
      6.818  0.3933E+00  0.2555E+01
      6.921  0.3974E+00  0.2595E+01
      7.024  0.3974E+00  0.2636E+01
      7.127  0.4229E+00  0.2678E+01
      7.230  0.3973E+00  0.2722E+01
      7.334  0.3876E+00  0.2762E+01
      7.437  0.3913E+00  0.2802E+01
      7.540  0.3640E+00  0.2841E+01
      7.643  0.3660E+00  0.2878E+01
      7.747  0.3939E+00  0.2918E+01
      7.850  0.3899E+00  0.2958E+01
      7.953  0.3950E+00  0.2999E+01
      8.056  0.4171E+00  0.3041E+01
      8.159  0.4064E+00  0.3084E+01
      8.263  0.4187E+00  0.3126E+01
      8.366  0.4244E+00  0.3170E+01
      8.469  0.4236E+00  0.3214E+01
      8.572  0.4284E+00  0.3258E+01
      8.675  0.4278E+00  0.3302E+01
      8.779  0.4305E+00  0.3346E+01
      8.882  0.4272E+00  0.3391E+01
      8.985  0.4216E+00  0.3434E+01
      9.088  0.4187E+00  0.3478E+01
      9.192  0.4180E+00  0.3521E+01
      9.295  0.4278E+00  0.3564E+01
      9.398  0.4386E+00  0.3609E+01
      9.501  0.4377E+00  0.3655E+01
      9.604  0.4388E+00  0.3700E+01
      9.708  0.4406E+00  0.3745E+01
      9.811  0.4476E+00  0.3791E+01
      9.914  0.4524E+00  0.3837E+01
     10.017  0.4489E+00  0.3884E+01
     10.121  0.4503E+00  0.3930E+01
     10.224  0.4525E+00  0.3977E+01
     10.327  0.4553E+00  0.4024E+01
     10.430  0.4552E+00  0.4071E+01
     10.533  0.4586E+00  0.4118E+01
     10.637  0.4658E+00  0.4166E+01
     10.740  0.4684E+00  0.4214E+01
     10.843  0.4690E+00  0.4262E+01
     10.946  0.4725E+00  0.4311E+01
     11.049  0.4753E+00  0.4360E+01
     11.153  0.4752E+00  0.4409E+01
     11.256  0.4768E+00  0.4458E+01
     11.359  0.4786E+00  0.4507E+01
     11.462  0.4831E+00  0.4557E+01
     11.566  0.4890E+00  0.4607E+01
     11.669  0.4904E+00  0.4657E+01
     11.772  0.4912E+00  0.4708E+01
     11.875  0.4923E+00  0.4759E+01
     11.978  0.4915E+00  0.4810E+01
     12.082  0.4984E+00  0.4861E+01
     12.185  0.5042E+00  0.4912E+01
     12.288  0.5103E+00  0.4965E+01
     12.391  0.5158E+00  0.5018E+01
     12.494  0.5153E+00  0.5071E+01
     12.598  0.5182E+00  0.5124E+01
     12.701  0.5166E+00  0.5178E+01
     12.804  0.5214E+00  0.5231E+01
     12.907  0.5271E+00  0.5285E+01
     13.011  0.5308E+00  0.5340E+01
     13.114  0.5430E+00  0.5395E+01
     13.217  0.5588E+00  0.5452E+01
     13.320  0.5747E+00  0.5511E+01
     13.423  0.5908E+00  0.5571E+01
     13.527  0.6259E+00  0.5633E+01
     13.630  0.5999E+00  0.5696E+01
     13.733  0.5906E+00  0.5757E+01
     13.836  0.5808E+00  0.5817E+01
     13.939  0.5782E+00  0.5877E+01
     14.043  0.5729E+00  0.5937E+01
     14.146  0.5628E+00  0.5995E+01
     14.249  0.5564E+00  0.6053E+01
     14.352  0.5542E+00  0.6110E+01
     14.456  0.5487E+00  0.6167E+01
     14.559  0.5442E+00  0.6224E+01
     14.662  0.5405E+00  0.6280E+01
     14.765  0.5381E+00  0.6335E+01
     14.868  0.5316E+00  0.6391E+01
     14.972  0.5293E+00  0.6445E+01
     15.075  0.5294E+00  0.6500E+01
     15.178  0.5327E+00  0.6555E+01
     15.281  0.5324E+00  0.6610E+01
     15.384  0.5313E+00  0.6665E+01
     15.488  0.5310E+00  0.6719E+01
     15.591  0.5287E+00  0.6774E+01
     15.694  0.5283E+00  0.6829E+01
     15.797  0.5315E+00  0.6883E+01
     15.901  0.5336E+00  0.6938E+01
     16.004  0.5337E+00  0.6993E+01
     16.107  0.5320E+00  0.7048E+01
     16.210  0.5305E+00  0.7103E+01
     16.313  0.5296E+00  0.7158E+01
     16.417  0.5302E+00  0.7213E+01
     16.520  0.5301E+00  0.7267E+01
     16.623  0.5320E+00  0.7322E+01
     16.726  0.5316E+00  0.7377E+01
     16.830  0.5302E+00  0.7432E+01
     16.933  0.5288E+00  0.7486E+01
     17.036  0.5275E+00  0.7541E+01
     17.139  0.5269E+00  0.7595E+01
     17.242  0.5255E+00  0.7650E+01
     17.346  0.5257E+00  0.7704E+01
     17.449  0.5265E+00  0.7758E+01
     17.552  0.5254E+00  0.7813E+01
     17.655  0.5241E+00  0.7867E+01
     17.758  0.5228E+00  0.7921E+01
     17.862  0.5218E+00  0.7975E+01
     17.965  0.5189E+00  0.8028E+01
     18.068  0.5161E+00  0.8082E+01
     18.171  0.5146E+00  0.8135E+01
     18.275  0.5139E+00  0.8188E+01
     18.378  0.5123E+00  0.8241E+01
     18.481  0.5114E+00  0.8294E+01
     18.584  0.5113E+00  0.8347E+01
     18.687  0.5138E+00  0.8400E+01
     18.791  0.5235E+00  0.8453E+01
     18.894  0.5422E+00  0.8508E+01
     18.997  0.5610E+00  0.8565E+01
     19.100  0.5691E+00  0.8623E+01
     19.203  0.5673E+00  0.8682E+01
     19.307  0.5616E+00  0.8740E+01
     19.410  0.5539E+00  0.8798E+01
     19.513  0.5392E+00  0.8854E+01
     19.616  0.5314E+00  0.8910E+01
     19.720  0.5434E+00  0.8965E+01
     19.823  0.5634E+00  0.9022E+01
     19.926  0.5831E+00  0.9081E+01
     20.029  0.5873E+00  0.9142E+01
     20.132  0.5810E+00  0.9202E+01
     20.236  0.5798E+00  0.9262E+01
     20.339  0.5897E+00  0.9322E+01
     20.442  0.4922E+00  0.9378E+01
     20.545  0.4542E+00  0.9427E+01
     20.648  0.4387E+00  0.9473E+01
     20.752  0.4138E+00  0.9517E+01
     20.855  0.3852E+00  0.9558E+01
     20.958  0.3515E+00  0.9596E+01
     21.061  0.3455E+00  0.9632E+01
     21.165  0.3360E+00  0.9667E+01
     21.268  0.3196E+00  0.9701E+01
     21.371  0.2925E+00  0.9733E+01
     21.474  0.2589E+00  0.9761E+01
     21.577  0.2523E+00  0.9787E+01
     21.681  0.2469E+00  0.9813E+01
     21.784  0.2372E+00  0.9838E+01
     21.887  0.1930E+00  0.9860E+01
     21.990  0.1726E+00  0.9879E+01
     22.093  0.1545E+00  0.9896E+01
     22.197  0.1305E+00  0.9910E+01
     22.300  0.1237E+00  0.9923E+01
     22.403  0.1161E+00  0.9936E+01
     22.506  0.1145E+00  0.9948E+01
     22.610  0.1248E+00  0.9960E+01
     22.713  0.1219E+00  0.9973E+01
     22.816  0.6581E-01  0.9983E+01
     22.919  0.4824E-01  0.9989E+01
     23.022  0.3162E-01  0.9993E+01
     23.126  0.2162E-01  0.9996E+01
     23.229  0.1366E-01  0.9997E+01
     23.332  0.8818E-02  0.9999E+01
     23.435  0.5199E-02  0.9999E+01
     23.539  0.2765E-02  0.1000E+02
     23.642  0.1361E-02  0.1000E+02
     23.745  0.4274E-03  0.1000E+02
     23.848  0.0000E+00  0.1000E+02
     23.951  0.0000E+00  0.1000E+02
     24.055  0.0000E+00  0.1000E+02
     24.158  0.0000E+00  0.1000E+02
     24.261  0.0000E+00  0.1000E+02
     24.364  0.0000E+00  0.1000E+02
     24.467  0.0000E+00  0.1000E+02
     24.571  0.0000E+00  0.1000E+02
     24.674  0.0000E+00  0.1000E+02
     24.777  0.0000E+00  0.1000E+02
     24.880  0.0000E+00  0.1000E+02
     24.984  0.0000E+00  0.1000E+02
     25.087  0.0000E+00  0.1000E+02
     25.190  0.0000E+00  0.1000E+02
     25.293  0.0000E+00  0.1000E+02
     25.396  0.0000E+00  0.1000E+02
     25.500  0.0000E+00  0.1000E+02
     25.603  0.0000E+00  0.1000E+02
     25.706  0.0000E+00  0.1000E+02
     25.809  0.0000E+00  0.1000E+02
