   1   1   0   0
  0.2150000E+02  0.3121173E-09  0.3121173E-09  0.3121173E-09  0.5000000E-15
   1.0000000000000000E-004
  CAR 
 Al atom                                 
     20.74313472     -5.93182955  301      5.48812567      1.00000000
     -5.932  0.0000E+00  0.0000E+00
     -5.843  0.0000E+00  0.0000E+00
     -5.754  0.0000E+00  0.0000E+00
     -5.665  0.0000E+00  0.0000E+00
     -5.576  0.0000E+00  0.0000E+00
     -5.487  0.0000E+00  0.0000E+00
     -5.398  0.0000E+00  0.0000E+00
     -5.309  0.0000E+00  0.0000E+00
     -5.220  0.0000E+00  0.0000E+00
     -5.132  0.0000E+00  0.0000E+00
     -5.043  0.0000E+00  0.0000E+00
     -4.954  0.0000E+00  0.0000E+00
     -4.865  0.0000E+00  0.0000E+00
     -4.776  0.0000E+00  0.0000E+00
     -4.687  0.0000E+00  0.0000E+00
     -4.598  0.0000E+00  0.0000E+00
     -4.509  0.0000E+00  0.0000E+00
     -4.420  0.0000E+00  0.0000E+00
     -4.331  0.0000E+00  0.0000E+00
     -4.242  0.0000E+00  0.0000E+00
     -4.153  0.0000E+00  0.0000E+00
     -4.065  0.0000E+00  0.0000E+00
     -3.976  0.0000E+00  0.0000E+00
     -3.887  0.2684E-01  0.6319E-03
     -3.798  0.5777E-01  0.4300E-02
     -3.709  0.7063E-01  0.9705E-02
     -3.620  0.8159E-01  0.1647E-01
     -3.531  0.9535E-01  0.2434E-01
     -3.442  0.1038E+00  0.3317E-01
     -3.353  0.1139E+00  0.4283E-01
     -3.264  0.1224E+00  0.5338E-01
     -3.175  0.1300E+00  0.6459E-01
     -3.087  0.1384E+00  0.7652E-01
     -2.998  0.1456E+00  0.8918E-01
     -2.909  0.1519E+00  0.1024E+00
     -2.820  0.1590E+00  0.1162E+00
     -2.731  0.1662E+00  0.1307E+00
     -2.642  0.1715E+00  0.1457E+00
     -2.553  0.1773E+00  0.1612E+00
     -2.464  0.1834E+00  0.1772E+00
     -2.375  0.1898E+00  0.1938E+00
     -2.286  0.1946E+00  0.2109E+00
     -2.197  0.1996E+00  0.2284E+00
     -2.108  0.2050E+00  0.2464E+00
     -2.020  0.2105E+00  0.2649E+00
     -1.931  0.2157E+00  0.2838E+00
     -1.842  0.2201E+00  0.3032E+00
     -1.753  0.2247E+00  0.3230E+00
     -1.664  0.2296E+00  0.3432E+00
     -1.575  0.2346E+00  0.3638E+00
     -1.486  0.2394E+00  0.3849E+00
     -1.397  0.2435E+00  0.4064E+00
     -1.308  0.2477E+00  0.4282E+00
     -1.219  0.2521E+00  0.4504E+00
     -1.130  0.2566E+00  0.4730E+00
     -1.041  0.2612E+00  0.4961E+00
     -0.953  0.2653E+00  0.5195E+00
     -0.864  0.2692E+00  0.5432E+00
     -0.775  0.2731E+00  0.5674E+00
     -0.686  0.2772E+00  0.5918E+00
     -0.597  0.2813E+00  0.6166E+00
     -0.508  0.2856E+00  0.6419E+00
     -0.419  0.2896E+00  0.6674E+00
     -0.330  0.2932E+00  0.6933E+00
     -0.241  0.2969E+00  0.7196E+00
     -0.152  0.3007E+00  0.7461E+00
     -0.063  0.3046E+00  0.7731E+00
      0.026  0.3086E+00  0.8003E+00
      0.114  0.3127E+00  0.8279E+00
      0.203  0.3162E+00  0.8559E+00
      0.292  0.3198E+00  0.8842E+00
      0.381  0.3234E+00  0.9128E+00
      0.470  0.3272E+00  0.9417E+00
      0.559  0.3310E+00  0.9709E+00
      0.648  0.3350E+00  0.1001E+01
      0.737  0.3391E+00  0.1031E+01
      0.826  0.3431E+00  0.1061E+01
      0.915  0.3471E+00  0.1092E+01
      1.004  0.3517E+00  0.1123E+01
      1.093  0.3574E+00  0.1154E+01
      1.181  0.3652E+00  0.1186E+01
      1.270  0.3781E+00  0.1219E+01
      1.359  0.4002E+00  0.1254E+01
      1.448  0.3821E+00  0.1289E+01
      1.537  0.3864E+00  0.1324E+01
      1.626  0.3771E+00  0.1358E+01
      1.715  0.3577E+00  0.1390E+01
      1.804  0.3500E+00  0.1422E+01
      1.893  0.3521E+00  0.1454E+01
      1.982  0.3358E+00  0.1485E+01
      2.071  0.3538E+00  0.1515E+01
      2.160  0.3608E+00  0.1547E+01
      2.248  0.3810E+00  0.1580E+01
      2.337  0.3841E+00  0.1614E+01
      2.426  0.4075E+00  0.1649E+01
      2.515  0.3934E+00  0.1685E+01
      2.604  0.3977E+00  0.1720E+01
      2.693  0.3979E+00  0.1755E+01
      2.782  0.4097E+00  0.1791E+01
      2.871  0.4168E+00  0.1829E+01
      2.960  0.4307E+00  0.1866E+01
      3.049  0.4430E+00  0.1905E+01
      3.138  0.4456E+00  0.1944E+01
      3.227  0.4394E+00  0.1983E+01
      3.315  0.4411E+00  0.2023E+01
      3.404  0.4471E+00  0.2062E+01
      3.493  0.4276E+00  0.2101E+01
      3.582  0.4179E+00  0.2138E+01
      3.671  0.4234E+00  0.2176E+01
      3.760  0.4237E+00  0.2214E+01
      3.849  0.4052E+00  0.2251E+01
      3.938  0.4046E+00  0.2286E+01
      4.027  0.4020E+00  0.2322E+01
      4.116  0.4329E+00  0.2359E+01
      4.205  0.4329E+00  0.2398E+01
      4.294  0.4488E+00  0.2437E+01
      4.382  0.4695E+00  0.2478E+01
      4.471  0.5098E+00  0.2521E+01
      4.560  0.5095E+00  0.2567E+01
      4.649  0.4776E+00  0.2611E+01
      4.738  0.4826E+00  0.2654E+01
      4.827  0.4799E+00  0.2697E+01
      4.916  0.4543E+00  0.2738E+01
      5.005  0.4414E+00  0.2778E+01
      5.094  0.4529E+00  0.2818E+01
      5.183  0.4734E+00  0.2859E+01
      5.272  0.4500E+00  0.2899E+01
      5.361  0.4583E+00  0.2940E+01
      5.449  0.4807E+00  0.2981E+01
      5.538  0.5060E+00  0.3025E+01
      5.627  0.5005E+00  0.3070E+01
      5.716  0.5097E+00  0.3114E+01
      5.805  0.5175E+00  0.3160E+01
      5.894  0.5038E+00  0.3205E+01
      5.983  0.5120E+00  0.3250E+01
      6.072  0.5003E+00  0.3295E+01
      6.161  0.4948E+00  0.3340E+01
      6.250  0.5023E+00  0.3384E+01
      6.339  0.4994E+00  0.3428E+01
      6.428  0.5046E+00  0.3473E+01
      6.516  0.5203E+00  0.3518E+01
      6.605  0.5364E+00  0.3566E+01
      6.694  0.5239E+00  0.3613E+01
      6.783  0.5290E+00  0.3659E+01
      6.872  0.5370E+00  0.3707E+01
      6.961  0.5368E+00  0.3754E+01
      7.050  0.5269E+00  0.3802E+01
      7.139  0.5291E+00  0.3849E+01
      7.228  0.5401E+00  0.3896E+01
      7.317  0.5417E+00  0.3944E+01
      7.406  0.5425E+00  0.3992E+01
      7.495  0.5497E+00  0.4041E+01
      7.583  0.5554E+00  0.4090E+01
      7.672  0.5546E+00  0.4140E+01
      7.761  0.5559E+00  0.4189E+01
      7.850  0.5629E+00  0.4239E+01
      7.939  0.5680E+00  0.4289E+01
      8.028  0.5762E+00  0.4340E+01
      8.117  0.5703E+00  0.4391E+01
      8.206  0.5691E+00  0.4442E+01
      8.295  0.5709E+00  0.4492E+01
      8.384  0.5737E+00  0.4543E+01
      8.473  0.5809E+00  0.4594E+01
      8.562  0.5872E+00  0.4646E+01
      8.650  0.5896E+00  0.4699E+01
      8.739  0.5964E+00  0.4751E+01
      8.828  0.6020E+00  0.4805E+01
      8.917  0.5971E+00  0.4858E+01
      9.006  0.6051E+00  0.4912E+01
      9.095  0.6073E+00  0.4965E+01
      9.184  0.6140E+00  0.5020E+01
      9.273  0.6206E+00  0.5074E+01
      9.362  0.6282E+00  0.5130E+01
      9.451  0.6337E+00  0.5186E+01
      9.540  0.6338E+00  0.5243E+01
      9.629  0.6551E+00  0.5300E+01
      9.717  0.6597E+00  0.5358E+01
      9.806  0.6753E+00  0.5417E+01
      9.895  0.6930E+00  0.5478E+01
      9.984  0.7211E+00  0.5541E+01
     10.073  0.7373E+00  0.5606E+01
     10.162  0.7071E+00  0.5670E+01
     10.251  0.6989E+00  0.5732E+01
     10.340  0.6910E+00  0.5794E+01
     10.429  0.6817E+00  0.5855E+01
     10.518  0.6660E+00  0.5915E+01
     10.607  0.6535E+00  0.5974E+01
     10.696  0.6469E+00  0.6031E+01
     10.784  0.6392E+00  0.6089E+01
     10.873  0.6329E+00  0.6145E+01
     10.962  0.6253E+00  0.6201E+01
     11.051  0.6190E+00  0.6256E+01
     11.140  0.6132E+00  0.6311E+01
     11.229  0.6066E+00  0.6365E+01
     11.318  0.5990E+00  0.6419E+01
     11.407  0.5960E+00  0.6472E+01
     11.496  0.5983E+00  0.6525E+01
     11.585  0.5997E+00  0.6578E+01
     11.674  0.5984E+00  0.6632E+01
     11.763  0.5970E+00  0.6685E+01
     11.851  0.5977E+00  0.6738E+01
     11.940  0.5990E+00  0.6791E+01
     12.029  0.6002E+00  0.6844E+01
     12.118  0.6069E+00  0.6898E+01
     12.207  0.6104E+00  0.6952E+01
     12.296  0.6125E+00  0.7007E+01
     12.385  0.6126E+00  0.7061E+01
     12.474  0.6131E+00  0.7116E+01
     12.563  0.6130E+00  0.7170E+01
     12.652  0.6126E+00  0.7225E+01
     12.741  0.6147E+00  0.7279E+01
     12.830  0.6178E+00  0.7334E+01
     12.918  0.6190E+00  0.7389E+01
     13.007  0.6192E+00  0.7444E+01
     13.096  0.6179E+00  0.7499E+01
     13.185  0.6168E+00  0.7554E+01
     13.274  0.6153E+00  0.7609E+01
     13.363  0.6149E+00  0.7663E+01
     13.452  0.6157E+00  0.7718E+01
     13.541  0.6185E+00  0.7773E+01
     13.630  0.6184E+00  0.7828E+01
     13.719  0.6172E+00  0.7883E+01
     13.808  0.6163E+00  0.7938E+01
     13.897  0.6154E+00  0.7992E+01
     13.985  0.6123E+00  0.8047E+01
     14.074  0.6084E+00  0.8101E+01
     14.163  0.6114E+00  0.8155E+01
     14.252  0.6139E+00  0.8210E+01
     14.341  0.6308E+00  0.8265E+01
     14.430  0.6211E+00  0.8321E+01
     14.519  0.6200E+00  0.8376E+01
     14.608  0.6169E+00  0.8431E+01
     14.697  0.6144E+00  0.8486E+01
     14.786  0.6106E+00  0.8540E+01
     14.875  0.6068E+00  0.8594E+01
     14.964  0.6060E+00  0.8648E+01
     15.052  0.6041E+00  0.8702E+01
     15.141  0.6065E+00  0.8756E+01
     15.230  0.6106E+00  0.8810E+01
     15.319  0.6135E+00  0.8864E+01
     15.408  0.6193E+00  0.8919E+01
     15.497  0.6298E+00  0.8975E+01
     15.586  0.6469E+00  0.9031E+01
     15.675  0.6812E+00  0.9090E+01
     15.764  0.7436E+00  0.9153E+01
     15.853  0.7231E+00  0.9219E+01
     15.942  0.7051E+00  0.9283E+01
     16.031  0.6317E+00  0.9342E+01
     16.119  0.6028E+00  0.9397E+01
     16.208  0.5784E+00  0.9450E+01
     16.297  0.5913E+00  0.9501E+01
     16.386  0.5584E+00  0.9552E+01
     16.475  0.4720E+00  0.9598E+01
     16.564  0.4303E+00  0.9638E+01
     16.653  0.4199E+00  0.9675E+01
     16.742  0.3978E+00  0.9712E+01
     16.831  0.3903E+00  0.9747E+01
     16.920  0.3902E+00  0.9782E+01
     17.009  0.3686E+00  0.9815E+01
     17.098  0.3157E+00  0.9846E+01
     17.186  0.2632E+00  0.9872E+01
     17.275  0.2347E+00  0.9894E+01
     17.364  0.2212E+00  0.9914E+01
     17.453  0.2063E+00  0.9933E+01
     17.542  0.1746E+00  0.9950E+01
     17.631  0.1396E+00  0.9964E+01
     17.720  0.1318E+00  0.9976E+01
     17.809  0.1008E+00  0.9986E+01
     17.898  0.3630E-01  0.9992E+01
     17.987  0.1954E-01  0.9994E+01
     18.076  0.1360E-01  0.9996E+01
     18.165  0.1027E-01  0.9997E+01
     18.253  0.8031E-02  0.9998E+01
     18.342  0.6467E-02  0.9998E+01
     18.431  0.5060E-02  0.9999E+01
     18.520  0.3807E-02  0.9999E+01
     18.609  0.2708E-02  0.1000E+02
     18.698  0.1765E-02  0.1000E+02
     18.787  0.1440E-02  0.1000E+02
     18.876  0.0000E+00  0.1000E+02
     18.965  0.0000E+00  0.1000E+02
     19.054  0.0000E+00  0.1000E+02
     19.143  0.0000E+00  0.1000E+02
     19.232  0.0000E+00  0.1000E+02
     19.320  0.0000E+00  0.1000E+02
     19.409  0.0000E+00  0.1000E+02
     19.498  0.0000E+00  0.1000E+02
     19.587  0.0000E+00  0.1000E+02
     19.676  0.0000E+00  0.1000E+02
     19.765  0.0000E+00  0.1000E+02
     19.854  0.0000E+00  0.1000E+02
     19.943  0.0000E+00  0.1000E+02
     20.032  0.0000E+00  0.1000E+02
     20.121  0.0000E+00  0.1000E+02
     20.210  0.0000E+00  0.1000E+02
     20.299  0.0000E+00  0.1000E+02
     20.387  0.0000E+00  0.1000E+02
     20.476  0.0000E+00  0.1000E+02
     20.565  0.0000E+00  0.1000E+02
     20.654  0.0000E+00  0.1000E+02
     20.743  0.0000E+00  0.1000E+02
