   1   1   0   0
  0.9050000E+01  0.2339131E-09  0.2339131E-09  0.2339131E-09  0.5000000E-15
   1.0000000000000000E-004
  CAR 
 Al atom                                 
     40.61521979     -1.96546399  301     15.71000217      1.00000000
     -1.965  0.0000E+00  0.0000E+00
     -1.824  0.0000E+00  0.0000E+00
     -1.682  0.0000E+00  0.0000E+00
     -1.540  0.0000E+00  0.0000E+00
     -1.398  0.0000E+00  0.0000E+00
     -1.256  0.0000E+00  0.0000E+00
     -1.114  0.0000E+00  0.0000E+00
     -0.972  0.0000E+00  0.0000E+00
     -0.830  0.0000E+00  0.0000E+00
     -0.688  0.0000E+00  0.0000E+00
     -0.546  0.0000E+00  0.0000E+00
     -0.404  0.0000E+00  0.0000E+00
     -0.262  0.0000E+00  0.0000E+00
     -0.120  0.0000E+00  0.0000E+00
      0.022  0.0000E+00  0.0000E+00
      0.164  0.2370E-01  0.1484E-02
      0.306  0.3118E-01  0.5307E-02
      0.447  0.4089E-01  0.1043E-01
      0.589  0.4636E-01  0.1661E-01
      0.731  0.5358E-01  0.2369E-01
      0.873  0.5806E-01  0.3161E-01
      1.015  0.6322E-01  0.4020E-01
      1.157  0.6835E-01  0.4957E-01
      1.299  0.7216E-01  0.5954E-01
      1.441  0.7653E-01  0.7009E-01
      1.583  0.8115E-01  0.8128E-01
      1.725  0.8453E-01  0.9304E-01
      1.867  0.8805E-01  0.1053E+00
      2.009  0.9193E-01  0.1180E+00
      2.151  0.9576E-01  0.1314E+00
      2.293  0.9877E-01  0.1452E+00
      2.435  0.1020E+00  0.1594E+00
      2.576  0.1054E+00  0.1741E+00
      2.718  0.1089E+00  0.1894E+00
      2.860  0.1119E+00  0.2050E+00
      3.002  0.1148E+00  0.2211E+00
      3.144  0.1178E+00  0.2376E+00
      3.286  0.1208E+00  0.2546E+00
      3.428  0.1241E+00  0.2719E+00
      3.570  0.1268E+00  0.2897E+00
      3.712  0.1295E+00  0.3079E+00
      3.854  0.1323E+00  0.3265E+00
      3.996  0.1352E+00  0.3455E+00
      4.138  0.1381E+00  0.3649E+00
      4.280  0.1409E+00  0.3847E+00
      4.422  0.1435E+00  0.4049E+00
      4.564  0.1461E+00  0.4254E+00
      4.706  0.1488E+00  0.4464E+00
      4.847  0.1515E+00  0.4677E+00
      4.989  0.1543E+00  0.4894E+00
      5.131  0.1570E+00  0.5115E+00
      5.273  0.1595E+00  0.5339E+00
      5.415  0.1621E+00  0.5568E+00
      5.557  0.1647E+00  0.5799E+00
      5.699  0.1673E+00  0.6035E+00
      5.841  0.1700E+00  0.6274E+00
      5.983  0.1728E+00  0.6518E+00
      6.125  0.1753E+00  0.6765E+00
      6.267  0.1779E+00  0.7015E+00
      6.409  0.1805E+00  0.7270E+00
      6.551  0.1832E+00  0.7528E+00
      6.693  0.1859E+00  0.7790E+00
      6.835  0.1887E+00  0.8056E+00
      6.976  0.1916E+00  0.8326E+00
      7.118  0.1944E+00  0.8599E+00
      7.260  0.1972E+00  0.8877E+00
      7.402  0.2002E+00  0.9159E+00
      7.544  0.2033E+00  0.9446E+00
      7.686  0.2066E+00  0.9737E+00
      7.828  0.2102E+00  0.1003E+01
      7.970  0.2140E+00  0.1033E+01
      8.112  0.2183E+00  0.1064E+01
      8.254  0.2232E+00  0.1095E+01
      8.396  0.2297E+00  0.1127E+01
      8.538  0.2393E+00  0.1161E+01
      8.680  0.2582E+00  0.1196E+01
      8.822  0.2535E+00  0.1233E+01
      8.964  0.2677E+00  0.1269E+01
      9.106  0.2588E+00  0.1305E+01
      9.247  0.2395E+00  0.1340E+01
      9.389  0.2331E+00  0.1373E+01
      9.531  0.2427E+00  0.1407E+01
      9.673  0.2266E+00  0.1440E+01
      9.815  0.2235E+00  0.1472E+01
      9.957  0.2142E+00  0.1503E+01
     10.099  0.2090E+00  0.1533E+01
     10.241  0.2082E+00  0.1562E+01
     10.383  0.2055E+00  0.1592E+01
     10.525  0.1954E+00  0.1620E+01
     10.667  0.1972E+00  0.1648E+01
     10.809  0.2094E+00  0.1677E+01
     10.951  0.2346E+00  0.1708E+01
     11.093  0.2237E+00  0.1740E+01
     11.235  0.2362E+00  0.1772E+01
     11.376  0.2457E+00  0.1807E+01
     11.518  0.2585E+00  0.1843E+01
     11.660  0.2597E+00  0.1880E+01
     11.802  0.2602E+00  0.1917E+01
     11.944  0.2623E+00  0.1954E+01
     12.086  0.2571E+00  0.1991E+01
     12.228  0.2524E+00  0.2026E+01
     12.370  0.2441E+00  0.2062E+01
     12.512  0.2527E+00  0.2097E+01
     12.654  0.2435E+00  0.2132E+01
     12.796  0.2262E+00  0.2165E+01
     12.938  0.2153E+00  0.2197E+01
     13.080  0.2293E+00  0.2229E+01
     13.222  0.2226E+00  0.2260E+01
     13.364  0.3125E+00  0.2295E+01
     13.506  0.2945E+00  0.2336E+01
     13.647  0.3346E+00  0.2381E+01
     13.789  0.3266E+00  0.2428E+01
     13.931  0.3516E+00  0.2476E+01
     14.073  0.3752E+00  0.2527E+01
     14.215  0.3578E+00  0.2579E+01
     14.357  0.3463E+00  0.2629E+01
     14.499  0.3245E+00  0.2677E+01
     14.641  0.3007E+00  0.2721E+01
     14.783  0.2892E+00  0.2763E+01
     14.925  0.2702E+00  0.2803E+01
     15.067  0.2608E+00  0.2840E+01
     15.209  0.2545E+00  0.2877E+01
     15.351  0.2491E+00  0.2912E+01
     15.493  0.2445E+00  0.2947E+01
     15.635  0.2413E+00  0.2982E+01
     15.776  0.2403E+00  0.3016E+01
     15.918  0.2411E+00  0.3050E+01
     16.060  0.2421E+00  0.3085E+01
     16.202  0.2514E+00  0.3119E+01
     16.344  0.2518E+00  0.3155E+01
     16.486  0.2680E+00  0.3192E+01
     16.628  0.3220E+00  0.3234E+01
     16.770  0.3227E+00  0.3280E+01
     16.912  0.3226E+00  0.3326E+01
     17.054  0.3196E+00  0.3371E+01
     17.196  0.3179E+00  0.3416E+01
     17.338  0.3197E+00  0.3462E+01
     17.480  0.3193E+00  0.3507E+01
     17.622  0.3169E+00  0.3552E+01
     17.764  0.3128E+00  0.3597E+01
     17.906  0.3137E+00  0.3641E+01
     18.047  0.3123E+00  0.3686E+01
     18.189  0.3105E+00  0.3730E+01
     18.331  0.3063E+00  0.3774E+01
     18.473  0.3048E+00  0.3817E+01
     18.615  0.3033E+00  0.3860E+01
     18.757  0.3005E+00  0.3903E+01
     18.899  0.2991E+00  0.3946E+01
     19.041  0.2960E+00  0.3988E+01
     19.183  0.2934E+00  0.4030E+01
     19.325  0.2923E+00  0.4071E+01
     19.467  0.2918E+00  0.4113E+01
     19.609  0.2863E+00  0.4154E+01
     19.751  0.2825E+00  0.4194E+01
     19.893  0.2796E+00  0.4234E+01
     20.035  0.2774E+00  0.4273E+01
     20.176  0.2757E+00  0.4313E+01
     20.318  0.2735E+00  0.4352E+01
     20.460  0.2703E+00  0.4390E+01
     20.602  0.2670E+00  0.4428E+01
     20.744  0.2640E+00  0.4466E+01
     20.886  0.2582E+00  0.4503E+01
     21.028  0.2508E+00  0.4539E+01
     21.170  0.2421E+00  0.4574E+01
     21.312  0.2383E+00  0.4608E+01
     21.454  0.2347E+00  0.4642E+01
     21.596  0.2535E+00  0.4677E+01
     21.738  0.2599E+00  0.4714E+01
     21.880  0.2618E+00  0.4751E+01
     22.022  0.2658E+00  0.4788E+01
     22.164  0.2706E+00  0.4826E+01
     22.306  0.2740E+00  0.4865E+01
     22.447  0.2783E+00  0.4904E+01
     22.589  0.2807E+00  0.4944E+01
     22.731  0.2837E+00  0.4984E+01
     22.873  0.2885E+00  0.5024E+01
     23.015  0.2937E+00  0.5066E+01
     23.157  0.2971E+00  0.5108E+01
     23.299  0.2993E+00  0.5150E+01
     23.441  0.3047E+00  0.5193E+01
     23.583  0.3106E+00  0.5236E+01
     23.725  0.3156E+00  0.5281E+01
     23.867  0.3210E+00  0.5326E+01
     24.009  0.3253E+00  0.5372E+01
     24.151  0.3313E+00  0.5419E+01
     24.293  0.3377E+00  0.5466E+01
     24.435  0.3457E+00  0.5514E+01
     24.576  0.3535E+00  0.5564E+01
     24.718  0.3607E+00  0.5615E+01
     24.860  0.3736E+00  0.5667E+01
     25.002  0.3922E+00  0.5721E+01
     25.144  0.4124E+00  0.5778E+01
     25.286  0.4370E+00  0.5838E+01
     25.428  0.4602E+00  0.5902E+01
     25.570  0.4521E+00  0.5966E+01
     25.712  0.4456E+00  0.6030E+01
     25.854  0.4422E+00  0.6093E+01
     25.996  0.4412E+00  0.6156E+01
     26.138  0.4357E+00  0.6218E+01
     26.280  0.4321E+00  0.6279E+01
     26.422  0.4314E+00  0.6341E+01
     26.564  0.4294E+00  0.6402E+01
     26.706  0.4267E+00  0.6463E+01
     26.847  0.4257E+00  0.6523E+01
     26.989  0.4271E+00  0.6584E+01
     27.131  0.4255E+00  0.6644E+01
     27.273  0.4215E+00  0.6704E+01
     27.415  0.4158E+00  0.6764E+01
     27.557  0.4154E+00  0.6823E+01
     27.699  0.4171E+00  0.6882E+01
     27.841  0.4155E+00  0.6941E+01
     27.983  0.4166E+00  0.7000E+01
     28.125  0.4168E+00  0.7059E+01
     28.267  0.4138E+00  0.7118E+01
     28.409  0.4144E+00  0.7177E+01
     28.551  0.4154E+00  0.7236E+01
     28.693  0.4134E+00  0.7295E+01
     28.835  0.4089E+00  0.7353E+01
     28.976  0.4080E+00  0.7411E+01
     29.118  0.4096E+00  0.7469E+01
     29.260  0.4111E+00  0.7527E+01
     29.402  0.4089E+00  0.7585E+01
     29.544  0.4033E+00  0.7643E+01
     29.686  0.4011E+00  0.7700E+01
     29.828  0.4018E+00  0.7757E+01
     29.970  0.4031E+00  0.7814E+01
     30.112  0.4014E+00  0.7871E+01
     30.254  0.4001E+00  0.7928E+01
     30.396  0.3964E+00  0.7985E+01
     30.538  0.3835E+00  0.8040E+01
     30.680  0.3585E+00  0.8093E+01
     30.822  0.3475E+00  0.8143E+01
     30.964  0.3426E+00  0.8192E+01
     31.106  0.3373E+00  0.8240E+01
     31.247  0.3343E+00  0.8287E+01
     31.389  0.3323E+00  0.8335E+01
     31.531  0.3299E+00  0.8382E+01
     31.673  0.3290E+00  0.8428E+01
     31.815  0.3316E+00  0.8475E+01
     31.957  0.3301E+00  0.8522E+01
     32.099  0.3296E+00  0.8569E+01
     32.241  0.3495E+00  0.8617E+01
     32.383  0.3533E+00  0.8667E+01
     32.525  0.3239E+00  0.8714E+01
     32.667  0.3069E+00  0.8759E+01
     32.809  0.2965E+00  0.8802E+01
     32.951  0.2913E+00  0.8844E+01
     33.093  0.2880E+00  0.8885E+01
     33.235  0.2857E+00  0.8925E+01
     33.377  0.2839E+00  0.8966E+01
     33.518  0.2833E+00  0.9006E+01
     33.660  0.2832E+00  0.9046E+01
     33.802  0.2842E+00  0.9086E+01
     33.944  0.2866E+00  0.9127E+01
     34.086  0.2928E+00  0.9168E+01
     34.228  0.2925E+00  0.9210E+01
     34.370  0.3034E+00  0.9252E+01
     34.512  0.3191E+00  0.9296E+01
     34.654  0.3433E+00  0.9343E+01
     34.796  0.3770E+00  0.9394E+01
     34.938  0.3955E+00  0.9449E+01
     35.080  0.4048E+00  0.9506E+01
     35.222  0.4241E+00  0.9564E+01
     35.364  0.4325E+00  0.9626E+01
     35.506  0.3825E+00  0.9683E+01
     35.647  0.3295E+00  0.9734E+01
     35.789  0.2921E+00  0.9778E+01
     35.931  0.2448E+00  0.9816E+01
     36.073  0.1949E+00  0.9847E+01
     36.215  0.1564E+00  0.9872E+01
     36.357  0.1324E+00  0.9892E+01
     36.499  0.1050E+00  0.9909E+01
     36.641  0.8812E-01  0.9923E+01
     36.783  0.7642E-01  0.9935E+01
     36.925  0.6227E-01  0.9944E+01
     37.067  0.5428E-01  0.9953E+01
     37.209  0.5397E-01  0.9960E+01
     37.351  0.4083E-01  0.9967E+01
     37.493  0.3435E-01  0.9972E+01
     37.635  0.2683E-01  0.9977E+01
     37.777  0.2384E-01  0.9980E+01
     37.918  0.2244E-01  0.9983E+01
     38.060  0.2346E-01  0.9987E+01
     38.202  0.2650E-01  0.9990E+01
     38.344  0.2793E-01  0.9994E+01
     38.486  0.2815E-01  0.9998E+01
     38.628  0.0000E+00  0.1000E+02
     38.770  0.0000E+00  0.1000E+02
     38.912  0.0000E+00  0.1000E+02
     39.054  0.0000E+00  0.1000E+02
     39.196  0.0000E+00  0.1000E+02
     39.338  0.0000E+00  0.1000E+02
     39.480  0.0000E+00  0.1000E+02
     39.622  0.0000E+00  0.1000E+02
     39.764  0.0000E+00  0.1000E+02
     39.906  0.0000E+00  0.1000E+02
     40.047  0.0000E+00  0.1000E+02
     40.189  0.0000E+00  0.1000E+02
     40.331  0.0000E+00  0.1000E+02
     40.473  0.0000E+00  0.1000E+02
     40.615  0.0000E+00  0.1000E+02
