    1    1    1    1
  0.9050000E+01  0.2339131E-09  0.2339131E-09  0.2339131E-09  0.5000000E-15
   1.0000000000000000E-004
  CAR 
 Al atom                                 
      3    455      5

  0.1262379E-14  0.1262379E-14  0.1262379E-14  0.6400000E-04
      1          0.034536   1.000000
      2         32.426253   0.000000
      3         32.426256   0.000000
      4         32.426256   0.000000
      5         37.490328   0.000000

  0.4000000E-01  0.1262879E-14  0.1252645E-14  0.5120000E-03
      1          0.099131   1.000000
      2         31.515236   0.000000
      3         32.384435   0.000000
      4         32.384437   0.000000
      5         38.018264   0.000000

  0.8000000E-01  0.1283695E-14  0.1265732E-14  0.5120000E-03
      1          0.292636   1.000000
      2         29.641806   0.000000
      3         32.266474   0.000000
      4         32.266475   0.000000
      5         38.235873   0.000000

  0.1200000E+00  0.1276756E-14  0.1254377E-14  0.5120000E-03
      1          0.614015   1.000000
      2         27.525282   0.000000
      3         32.090999   0.000000
      4         32.090999   0.000000
      5         37.901983   0.000000

  0.1600000E+00  0.1276756E-14  0.1266839E-14  0.5120000E-03
      1          1.061515   1.000000
      2         25.369491   0.000000
      3         31.879996   0.000000
      4         31.879998   0.000000
      5         37.431877   0.000000

  0.2000000E+00  0.1262879E-14  0.1219623E-14  0.5120000E-03
      1          1.632812   1.000000
      2         23.241946   0.000000
      3         31.653211   0.000000
      4         31.653213   0.000000
      5         36.960742   0.000000

  0.2400000E+00  0.1262879E-14  0.1211894E-14  0.5120000E-03
      1          2.325009   1.000000
      2         21.173244   0.000000
      3         31.425766   0.000000
      4         31.425770   0.000000
      5         36.543536   0.000000

  0.2800000E+00  0.1249001E-14  0.1218042E-14  0.5120000E-03
      1          3.134374   1.000000
      2         19.178398   0.000000
      3         31.209486   0.000000
      4         31.209491   0.000000
      5         36.204775   0.000000

  0.3200000E+00  0.1276756E-14  0.1250070E-14  0.5120000E-03
      1          4.056598   1.000000
      2         17.267336  -0.012367
      3         31.015424   0.000000
      4         31.015429   0.000000
      5         35.953619   0.000000

  0.3600000E+00  0.1276756E-14  0.1217086E-14  0.5120000E-03
      1          5.085142   1.000000
      2         15.446637   0.678871
      3         30.847112   0.000000
      4         30.847118   0.000000
      5         35.783154   0.000000

  0.4000000E+00  0.1221245E-14  0.1208731E-14  0.5120000E-03
      1          6.209861   1.000000
      2         13.728094   1.000000
      3         30.713945   0.000000
      4         30.713952   0.000000
      5         35.682673   0.000000

  0.4400000E+00  0.1276756E-14  0.1228132E-14  0.5120000E-03
      1          7.403613   1.000000
      2         12.139757   1.000000
      3         30.621527   0.000000
      4         30.621533   0.000000
      5         35.633359   0.000000

  0.4800000E+00  0.1249001E-14  0.1192021E-14  0.5120000E-03
      1          8.519659   1.000000
      2         10.826505   1.000000
      3         30.573484   0.000000
      4         30.573492   0.000000
      5         35.615304   0.000000

  0.4000000E-01  0.4000000E-01  0.1248541E-14  0.3840000E-03
      1          0.120664   1.000000
      2         31.700123   0.000000
      3         32.107758   0.000000
      4         32.107760   0.000000
      5         38.390261   0.000000

  0.8000000E-01  0.4000000E-01  0.1268254E-14  0.1536000E-02
      1          0.271166   1.000000
      2         30.218864   0.000000
      3         31.796233   0.000000
      4         32.168457   0.000000
      5         38.549062   0.000000

  0.1200000E+00  0.4000000E-01  0.1246647E-14  0.1536000E-02
      1          0.549852   1.000000
      2         28.207253   0.000000
      3         31.476143   0.000000
      4         32.208923   0.000000
      5         38.092949   0.000000

  0.1600000E+00  0.4000000E-01  0.1259734E-14  0.1536000E-02
      1          0.955220   1.000000
      2         26.086072   0.000000
      3         31.167629   0.000000
      4         32.120726   0.000000
      5         37.639650   0.000000

  0.2000000E+00  0.4000000E-01  0.1225146E-14  0.1536000E-02
      1          1.485160   1.000000
      2         23.963178   0.000000
      3         30.885035   0.000000
      4         31.924286   0.000000
      5         37.173349   0.000000

  0.2400000E+00  0.4000000E-01  0.1204164E-14  0.1536000E-02
      1          2.136910   1.000000
      2         21.883725   0.000000
      3         30.638806   0.000000
      4         31.653589   0.000000
      5         36.693228   0.000000

  0.2800000E+00  0.4000000E-01  0.1223565E-14  0.1536000E-02
      1          2.907076   1.000000
      2         19.870035   0.000000
      3         30.437499   0.000000
      4         31.338840   0.000000
      5         36.225277   0.000000

  0.3200000E+00  0.4000000E-01  0.1268845E-14  0.1536000E-02
      1          3.791540   1.000000
      2         17.934752   0.000000
      3         30.285027   0.000000
      4         31.006330   0.000000
      5         35.814016   0.000000

  0.3600000E+00  0.4000000E-01  0.1262992E-14  0.1536000E-02
      1          4.784755   1.000000
      2         16.086801   0.214339
      3         30.188859   0.000000
      4         30.677445   0.000000
      5         35.498931   0.000000

  0.4000000E+00  0.4000000E-01  0.1253386E-14  0.1536000E-02
      1          5.878100   1.000000
      2         14.334419   1.032762
      3         30.150745   0.000000
      4         30.368071   0.000000
      5         35.298248   0.000000

  0.4400000E+00  0.4000000E-01  0.1247533E-14  0.1536000E-02
      1          7.053322   1.000000
      2         12.699690   1.000000
      3         30.092464   0.000000
      4         30.175794   0.000000
      5         35.215704   0.000000

  0.4800000E+00  0.4000000E-01  0.1239178E-14  0.1536000E-02
      1          8.234400   1.000000
      2         11.256206   1.000000
      3         29.861670   0.000000
      4         30.265753   0.000000
      5         35.246603   0.000000

 -0.4800000E+00  0.4000000E-01  0.1313121E-14  0.1536000E-02
      1          8.786317   1.000000
      2         10.638762   1.000000
      3         29.685648   0.000000
      4         30.421560   0.000000
      5         35.381352   0.000000

 -0.4400000E+00  0.4000000E-01  0.1333772E-14  0.1536000E-02
      1          7.852826   1.000000
      2         11.703327   1.000000
      3         29.569696   0.000000
      4         30.639059   0.000000
      5         35.603307   0.000000

 -0.4000000E+00  0.4000000E-01  0.1325417E-14  0.1536000E-02
      1          6.654684   1.000000
      2         13.229421   1.000000
      3         29.517148   0.000000
      4         30.912557   0.000000
      5         35.879323   0.000000

 -0.3600000E+00  0.4000000E-01  0.1331566E-14  0.1536000E-02
      1          5.503201   1.000000
      2         14.906018   1.020702
      3         29.528545   0.000000
      4         31.228092   0.000000
      5         36.149258   0.000000

 -0.3200000E+00  0.4000000E-01  0.1283453E-14  0.1536000E-02
      1          4.442002   1.000000
      2         16.691726  -0.064150
      3         29.605826   0.000000
      4         31.566578   0.000000
      5         36.385428   0.000000

 -0.2800000E+00  0.4000000E-01  0.1289602E-14  0.1536000E-02
      1          3.484282   1.000000
      2         18.569028   0.000000
      3         29.746144   0.000000
      4         31.903960   0.000000
      5         36.635956   0.000000

 -0.2400000E+00  0.4000000E-01  0.1295125E-14  0.1536000E-02
      1          2.637427   1.000000
      2         20.530063   0.000000
      3         29.946371   0.000000
      4         32.211224   0.000000
      5         36.943262   0.000000

 -0.2000000E+00  0.4000000E-01  0.1286770E-14  0.1536000E-02
      1          1.906299   1.000000
      2         22.564387   0.000000
      3         30.201905   0.000000
      4         32.465754   0.000000
      5         37.321134   0.000000

 -0.1600000E+00  0.4000000E-01  0.1266059E-14  0.1536000E-02
      1          1.294839   1.000000
      2         24.655226   0.000000
      3         30.508161   0.000000
      4         32.646035   0.000000
      5         37.760873   0.000000

 -0.1200000E+00  0.4000000E-01  0.1275833E-14  0.1536000E-02
      1          0.806137   1.000000
      2         26.769192   0.000000
      3         30.860355   0.000000
      4         32.733703   0.000000
      5         38.237777   0.000000

 -0.8000000E-01  0.4000000E-01  0.1264478E-14  0.1536000E-02
      1          0.442782   1.000000
      2         28.827336   0.000000
      3         31.261568   0.000000
      4         32.717554   0.000000
      5         38.615220   0.000000

 -0.4000000E-01  0.4000000E-01  0.1267220E-14  0.7680000E-03
      1          0.206712   1.000000
      2         30.586099   0.000000
      3         31.773250   0.000000
      4         32.596446   0.000000
      5         38.533072   0.000000

  0.8000000E-01  0.8000000E-01  0.1274090E-14  0.3840000E-03
      1          0.378479   1.000000
      2         30.253887   0.000000
      3         31.336409   0.000000
      4         31.336412   0.000000
      5         37.416323   0.000000

  0.1200000E+00  0.8000000E-01  0.1259734E-14  0.1536000E-02
      1          0.614043   1.000000
      2         28.758278   0.000000
      3         30.906659   0.000000
      4         31.334607   0.000000
      5         36.511967   0.000000

  0.1600000E+00  0.8000000E-01  0.1252005E-14  0.1536000E-02
      1          0.976539   1.000000
      2         26.778189   0.000000
      3         30.520041   0.000000
      4         31.394644   0.000000
      5         35.859805   0.000000

  0.2000000E+00  0.8000000E-01  0.1218042E-14  0.1536000E-02
      1          1.464102   1.000000
      2         24.711076   0.000000
      3         30.184108   0.000000
      4         31.241901   0.000000
      5         35.394235   0.000000

  0.2400000E+00  0.8000000E-01  0.1223565E-14  0.1536000E-02
      1          2.074199   1.000000
      2         22.650103   0.000000
      3         29.905741   0.000000
      4         30.904560   0.000000
      5         35.032152   0.000000

  0.2800000E+00  0.8000000E-01  0.1189330E-14  0.1536000E-02
      1          2.803630   1.000000
      2         20.635092   0.000000
      3         29.689776   0.000000
      4         30.462074   0.000000
      5         34.722869   0.000000

  0.3200000E+00  0.8000000E-01  0.1235236E-14  0.1536000E-02
      1          3.648595   1.000000
      2         18.687568   0.000000
      3         29.538988   0.000000
      4         29.980345   0.000000
      5         34.465897   0.000000

  0.3600000E+00  0.8000000E-01  0.1255887E-14  0.1536000E-02
      1          4.604000   1.000000
      2         16.820143  -0.064070
      3         29.457508   0.000000
      4         29.501608   0.000000
      5         34.279752   0.000000

  0.4000000E+00  0.8000000E-01  0.1246282E-14  0.1536000E-02
      1          5.662624   1.000000
      2         15.042894   0.955107
      3         29.051871   0.000000
      4         29.449207   0.000000
      5         34.184881   0.000000

  0.4400000E+00  0.8000000E-01  0.1240428E-14  0.1536000E-02
      1          6.810835   1.000000
      2         13.372007   1.000000
      3         28.648062   0.000000
      4         29.518713   0.000000
      5         34.193143   0.000000

  0.4800000E+00  0.8000000E-01  0.1204318E-14  0.1536000E-02
      1          8.004722   1.000000
      2         11.852079   1.000000
      3         28.300163   0.000000
      4         29.668046   0.000000
      5         34.308918   0.000000

 -0.4800000E+00  0.8000000E-01  0.1279512E-14  0.1536000E-02
      1          8.931869   1.000000
      2         10.794488   1.000000
      3         28.018091   0.000000
      4         29.900107   0.000000
      5         34.530225   0.000000

 -0.4400000E+00  0.8000000E-01  0.1339295E-14  0.1536000E-02
      1          8.384081   1.000000
      2         11.407260   1.000000
      3         27.808022   0.000000
      4         30.216899   0.000000
      5         34.850714   0.000000

 -0.4000000E+00  0.8000000E-01  0.1291808E-14  0.1536000E-02
      1          7.207798   1.000000
      2         12.843582   1.000000
      3         27.673597   0.000000
      4         30.617463   0.000000
      5         35.259897   0.000000

 -0.3600000E+00  0.8000000E-01  0.1323836E-14  0.1536000E-02
      1          6.036140   1.000000
      2         14.470873   1.055776
      3         27.621308   0.000000
      4         31.097943   0.000000
      5         35.743037   0.000000

 -0.3200000E+00  0.8000000E-01  0.1289602E-14  0.1536000E-02
      1          4.945638   1.000000
      2         16.212104   0.125498
      3         27.652653   0.000000
      4         31.646465   0.000000
      5         36.278606   0.000000

 -0.2800000E+00  0.8000000E-01  0.1268619E-14  0.1536000E-02
      1          3.954921   1.000000
      2         18.045170   0.000000
      3         27.770266   0.000000
      4         32.235391   0.000000
      5         35.783857   0.000000

 -0.2400000E+00  0.8000000E-01  0.1273517E-14  0.1536000E-02
      1          3.072527   1.000000
      2         19.956043   0.000000
      3         27.976951   0.000000
      4         32.805867   0.000000
      5         35.833168   0.000000

 -0.2000000E+00  0.8000000E-01  0.1278728E-14  0.1536000E-02
      1          2.304184   1.000000
      2         21.927597   0.000000
      3         28.278654   0.000000
      4         33.249712   0.000000
      5         36.064550   0.000000

 -0.1600000E+00  0.8000000E-01  0.1275521E-14  0.1536000E-02
      1          1.653947   1.000000
      2         23.926703   0.000000
      3         28.689555   0.000000
      4         33.445749   0.000000
      5         36.557004   0.000000

 -0.1200000E+00  0.8000000E-01  0.1276699E-14  0.1536000E-02
      1          1.125234   1.000000
      2         25.877102   0.000000
      3         29.251974   0.000000
      4         33.375058   0.000000
      5         37.285742   0.000000

 -0.8000000E-01  0.8000000E-01  0.1266943E-14  0.7680000E-03
      1          0.720813   1.000000
      2         27.594429   0.000000
      3         30.081304   0.000000
      4         33.106677   0.000000
      5         38.141401   0.000000

  0.1200000E+00  0.1200000E+00  0.1252005E-14  0.3840000E-03
      1          0.806201   1.000000
      2         28.711396   0.000000
      3         30.393572   0.000000
      4         30.393575   0.000000
      5         35.082061   0.000000

  0.1600000E+00  0.1200000E+00  0.1258153E-14  0.1536000E-02
      1          1.125349   1.000000
      2         27.326967   0.000000
      3         29.942921   0.000000
      4         30.304040   0.000000
      5         34.022791   0.000000

  0.2000000E+00  0.1200000E+00  0.1223565E-14  0.1536000E-02
      1          1.569763   1.000000
      2         25.436723   0.000000
      3         29.558895   0.000000
      4         30.243949   0.000000
      5         33.393626   0.000000

  0.2400000E+00  0.1200000E+00  0.1215835E-14  0.1536000E-02
      1          2.137194   1.000000
      2         23.446293   0.000000
      3         29.245837   0.000000
      4         29.871518   0.000000
      5         33.131920   0.000000

  0.2800000E+00  0.1200000E+00  0.1208731E-14  0.1536000E-02
      1          2.824638   1.000000
      2         21.457726   0.000000
      3         29.004197   0.000000
      4         29.301712   0.000000
      5         33.033304   0.000000

  0.3200000E+00  0.1200000E+00  0.1254637E-14  0.1536000E-02
      1          3.628531   1.000000
      2         19.514073   0.000000
      3         28.677226   0.000000
      4         28.837225   0.000000
      5         32.969575   0.000000

  0.3600000E+00  0.1200000E+00  0.1221027E-14  0.1536000E-02
      1          4.544194   1.000000
      2         17.638183   0.000000
      3         28.067855   0.000000
      4         28.747642   0.000000
      5         32.928098   0.000000

  0.4000000E+00  0.1200000E+00  0.1212673E-14  0.1536000E-02
      1          5.565297   1.000000
      2         15.843869   0.386479
      3         27.503534   0.000000
      4         28.737859   0.000000
      5         32.934003   0.000000

  0.4400000E+00  0.1200000E+00  0.1259829E-14  0.1536000E-02
      1          6.681206   1.000000
      2         14.147589   1.005632
      3         26.998460   0.000000
      4         28.811117   0.000000
      5         33.014514   0.000000

  0.4800000E+00  0.1200000E+00  0.1197214E-14  0.1536000E-02
      1          7.863591   1.000000
      2         12.577176   1.000000
      3         26.562456   0.000000
      4         28.972373   0.000000
      5         33.187135   0.000000

 -0.4800000E+00  0.1200000E+00  0.1271157E-14  0.1536000E-02
      1          8.962651   1.000000
      2         11.284228   1.000000
      3         26.199407   0.000000
      4         29.222359   0.000000
      5         33.459058   0.000000

 -0.4400000E+00  0.1200000E+00  0.1318313E-14  0.1536000E-02
      1          8.961867   1.000000
      2         11.284301   1.000000
      3         25.919154   0.000000
      4         29.565759   0.000000
      5         33.831546   0.000000

 -0.4000000E+00  0.1200000E+00  0.1256948E-14  0.1536000E-02
      1          7.862355   1.000000
      2         12.575505   1.000000
      3         25.725810   0.000000
      4         30.005542   0.000000
      5         34.300002   0.000000

 -0.3600000E+00  0.1200000E+00  0.1316107E-14  0.1536000E-02
      1          6.680104   1.000000
      2         14.141111   1.004664
      3         25.624637   0.000000
      4         30.543914   0.000000
      5         34.856278   0.000000

 -0.3200000E+00  0.1200000E+00  0.1281872E-14  0.1536000E-02
      1          5.564367   1.000000
      2         15.828846   0.398255
      3         25.622003   0.000000
      4         31.181719   0.000000
      5         35.488637   0.000000

 -0.2800000E+00  0.1200000E+00  0.1280769E-14  0.1536000E-02
      1          4.543473   1.000000
      2         17.604016   0.000000
      3         25.726128   0.000000
      4         31.918492   0.000000
      5         36.117750   0.000000

 -0.2400000E+00  0.1200000E+00  0.1286917E-14  0.1536000E-02
      1          3.627994   1.000000
      2         19.441608   0.000000
      3         25.950732   0.000000
      4         32.744011   0.000000
      5         35.766957   0.000000

 -0.2000000E+00  0.1200000E+00  0.1268623E-14  0.1536000E-02
      1          2.824289   1.000000
      2         21.303102   0.000000
      3         26.324193   0.000000
      4         33.617848   0.000000
      5         35.405435   0.000000

 -0.1600000E+00  0.1200000E+00  0.1257852E-14  0.1536000E-02
      1          2.136983   1.000000
      2         23.106499   0.000000
      3         26.913410   0.000000
      4         34.229172   0.000000
      5         35.325045   0.000000

 -0.1200000E+00  0.1200000E+00  0.1271622E-14  0.7680000E-03
      1          1.569625   1.000000
      2         24.684132   0.000000
      3         27.856511   0.000000
      4         33.956058   0.000000
      5         36.138514   0.000000

  0.1600000E+00  0.1600000E+00  0.1237171E-14  0.3840000E-03
      1          1.400875   1.000000
      2         27.247275   0.000000
      3         29.440121   0.000000
      4         29.440125   0.000000
      5         32.483539   0.000000

  0.2000000E+00  0.1600000E+00  0.1242340E-14  0.1536000E-02
      1          1.801614   1.000000
      2         25.993881   0.000000
      3         29.013961   0.000000
      4         29.233045   0.000000
      5         31.456884   0.000000

  0.2400000E+00  0.1600000E+00  0.1208731E-14  0.1536000E-02
      1          2.325599   1.000000
      2         24.213587   0.000000
      3         28.664963   0.000000
      4         28.827504   0.000000
      5         31.150402   0.000000

  0.2800000E+00  0.1600000E+00  0.1228132E-14  0.1536000E-02
      1          2.969997   1.000000
      2         22.307362   0.000000
      3         28.101684   0.000000
      4         28.394696   0.000000
      5         31.266973   0.000000

  0.3200000E+00  0.1600000E+00  0.1274038E-14  0.1536000E-02
      1          3.731545   1.000000
      2         20.395493   0.000000
      3         27.329339   0.000000
      4         28.204310   0.000000
      5         31.426532   0.000000

  0.3600000E+00  0.1600000E+00  0.1240428E-14  0.1536000E-02
      1          4.605788   1.000000
      2         18.526986   0.000000
      3         26.599712   0.000000
      4         28.095382   0.000000
      5         31.548401   0.000000

  0.4000000E+00  0.1600000E+00  0.1204318E-14  0.1536000E-02
      1          5.587246   1.000000
      2         16.726756  -0.061714
      3         25.935860   0.000000
      4         28.069931   0.000000
      5         31.662696   0.000000

  0.4400000E+00  0.1600000E+00  0.1224969E-14  0.1536000E-02
      1          6.667035   1.000000
      2         15.013588   0.976082
      3         25.345219   0.000000
      4         28.130491   0.000000
      5         31.812677   0.000000

  0.4800000E+00  0.1600000E+00  0.1188859E-14  0.1536000E-02
      1          7.825290   1.000000
      2         13.410414   1.000000
      3         24.831519   0.000000
      4         28.279308   0.000000
      5         32.031383   0.000000

 -0.4800000E+00  0.1600000E+00  0.1264053E-14  0.1536000E-02
      1          8.982933   1.000000
      2         11.997596   1.000000
      3         24.402189   0.000000
      4         28.520690   0.000000
      5         32.338701   0.000000

 -0.4400000E+00  0.1600000E+00  0.1324461E-14  0.1536000E-02
      1          9.514592   1.000000
      2         11.400762   1.000000
      3         24.061504   0.000000
      4         28.855906   0.000000
      5         32.742558   0.000000

 -0.4000000E+00  0.1600000E+00  0.1263096E-14  0.1536000E-02
      1          8.607490   1.000000
      2         12.430710   1.000000
      3         23.816004   0.000000
      4         29.289020   0.000000
      5         33.243858   0.000000

 -0.3600000E+00  0.1600000E+00  0.1322255E-14  0.1536000E-02
      1          7.429887   1.000000
      2         13.916405   1.000000
      3         23.673735   0.000000
      4         29.822970   0.000000
      5         33.838391   0.000000

 -0.3200000E+00  0.1600000E+00  0.1294647E-14  0.1536000E-02
      1          6.294565   1.000000
      2         15.538046   0.625588
      3         23.645886   0.000000
      4         30.460459   0.000000
      5         34.517163   0.000000

 -0.2800000E+00  0.1600000E+00  0.1286917E-14  0.1536000E-02
      1          5.246810   1.000000
      2         17.234195  -0.008555
      3         23.751013   0.000000
      4         31.203686   0.000000
      5         35.267635   0.000000

 -0.2400000E+00  0.1600000E+00  0.1281875E-14  0.1536000E-02
      1          4.300751   1.000000
      2         18.955602   0.000000
      3         24.025726   0.000000
      4         32.052452   0.000000
      5         36.484042   0.000000

 -0.2000000E+00  0.1600000E+00  0.1260268E-14  0.1536000E-02
      1          3.463938   1.000000
      2         20.611165   0.000000
      3         24.551889   0.000000
      4         33.005947   0.000000
      5         35.844036   0.000000

 -0.1600000E+00  0.1600000E+00  0.1259837E-14  0.7680000E-03
      1          2.741374   1.000000
      2         22.036052   0.000000
      3         25.481525   0.000000
      4         34.037914   0.000000
      5         35.142859   0.000000

  0.2000000E+00  0.2000000E+00  0.1263263E-14  0.3840000E-03
      1          2.158430   1.000000
      2         25.914968   0.000000
      3         28.549104   0.000000
      4         28.549108   0.000000
      5         29.833603   0.000000

  0.2400000E+00  0.2000000E+00  0.1201898E-14  0.1536000E-02
      1          2.638385   1.000000
      2         24.789439   0.000000
      3         27.942303   0.000000
      4         28.166674   0.000000
      5         29.202576   0.000000

  0.2800000E+00  0.2000000E+00  0.1221299E-14  0.1536000E-02
      1          3.238982   1.000000
      2         23.120066   0.000000
      3         26.939116   0.000000
      4         27.866760   0.000000
      5         29.512043   0.000000

  0.3200000E+00  0.2000000E+00  0.1267205E-14  0.1536000E-02
      1          3.957118   1.000000
      2         21.297652   0.000000
      3         26.002243   0.000000
      4         27.649806   0.000000
      5         29.889915   0.000000

  0.3600000E+00  0.2000000E+00  0.1207091E-14  0.1536000E-02
      1          4.788727   1.000000
      2         19.463505   0.000000
      3         25.163549   0.000000
      4         27.517091   0.000000
      5         30.185741   0.000000

  0.4000000E+00  0.2000000E+00  0.1251746E-14  0.1536000E-02
      1          5.728817   1.000000
      2         17.673812   0.000000
      3         24.414236   0.000000
      4         27.469313   0.000000
      5         30.418760   0.000000

  0.4400000E+00  0.2000000E+00  0.1245892E-14  0.1536000E-02
      1          6.769481   1.000000
      2         15.954930   0.289846
      3         23.748735   0.000000
      4         27.508244   0.000000
      5         30.643206   0.000000

  0.4800000E+00  0.2000000E+00  0.1209782E-14  0.1536000E-02
      1          7.896215   1.000000
      2         14.332640   1.027410
      3         23.169570   0.000000
      4         27.635910   0.000000
      5         30.907260   0.000000

 -0.4800000E+00  0.2000000E+00  0.1270472E-14  0.1536000E-02
      1          9.062403   1.000000
      2         12.854662   1.000000
      3         22.679195   0.000000
      4         27.854764   0.000000
      5         31.243040   0.000000

 -0.4400000E+00  0.2000000E+00  0.1330881E-14  0.1536000E-02
      1          9.954177   1.000000
      2         11.835055   1.000000
      3         22.284556   0.000000
      4         28.168312   0.000000
      5         31.669067   0.000000

 -0.4000000E+00  0.2000000E+00  0.1269516E-14  0.1536000E-02
      1          9.425445   1.000000
      2         12.417366   1.000000
      3         21.992925   0.000000
      4         28.577071   0.000000
      5         32.190378   0.000000

 -0.3600000E+00  0.2000000E+00  0.1335301E-14  0.1536000E-02
      1          8.279059   1.000000
      2         13.791919   1.000000
      3         21.817549   0.000000
      4         29.084314   0.000000
      5         32.807533   0.000000

 -0.3200000E+00  0.2000000E+00  0.1287814E-14  0.1536000E-02
      1          7.131171   1.000000
      2         15.326351   0.810916
      3         21.778774   0.000000
      4         29.691513   0.000000
      5         33.513831   0.000000

 -0.2800000E+00  0.2000000E+00  0.1301214E-14  0.1536000E-02
      1          6.060608   1.000000
      2         16.904015  -0.043176
      3         21.918689   0.000000
      4         30.399103   0.000000
      5         34.298609   0.000000

 -0.2400000E+00  0.2000000E+00  0.1285201E-14  0.1536000E-02
      1          5.087175   1.000000
      2         18.417193   0.000000
      3         22.327506   0.000000
      4         31.203187   0.000000
      5         35.145547   0.000000

 -0.2000000E+00  0.2000000E+00  0.1291420E-14  0.7680000E-03
      1          4.219746   1.000000
      2         19.690589   0.000000
      3         23.171566   0.000000
      4         32.090857   0.000000
      5         36.662973   0.000000

  0.2400000E+00  0.2400000E+00  0.1221299E-14  0.3840000E-03
      1          3.074032   1.000000
      2         24.734085   0.000000
      3         27.222623   0.000000
      4         27.752828   0.000000
      5         27.752831   0.000000

  0.2800000E+00  0.2400000E+00  0.1214195E-14  0.1536000E-02
      1          3.630289   1.000000
      2         23.727165   0.000000
      3         25.836226   0.000000
      4         27.423445   0.000000
      5         27.941492   0.000000

  0.3200000E+00  0.2400000E+00  0.1258850E-14  0.1536000E-02
      1          4.304169   1.000000
      2         22.152573   0.000000
      3         24.716193   0.000000
      4         27.178808   0.000000
      5         28.422011   0.000000

  0.3600000E+00  0.2400000E+00  0.1252996E-14  0.1536000E-02
      1          5.092102   1.000000
      2         20.405850   0.000000
      3         23.787726   0.000000
      4         27.019447   0.000000
      5         28.864364   0.000000

  0.4000000E+00  0.2400000E+00  0.1244642E-14  0.1536000E-02
      1          5.989139   1.000000
      2         18.650662   0.000000
      3         22.970298   0.000000
      4         26.945831   0.000000
      5         29.220841   0.000000

  0.4400000E+00  0.2400000E+00  0.1237537E-14  0.1536000E-02
      1          6.988701   1.000000
      2         16.944451  -0.056967
      3         22.244391   0.000000
      4         26.959190   0.000000
      5         29.528855   0.000000

  0.4800000E+00  0.2400000E+00  0.1121912E-14  0.1536000E-02
      1          8.078965   1.000000
      2         15.317799   0.816235
      3         21.606372   0.000000
      4         27.061012   0.000000
      5         29.842921   0.000000

 -0.4800000E+00  0.2400000E+00  0.1276621E-14  0.1536000E-02
      1          9.230015   1.000000
      2         13.806194   1.000000