    1    1    1    1
  0.1660088E+02  0.2863400E-09  0.2863400E-09  0.2863400E-09  0.5000000E-15
   1.0000000000000000E-004
  CAR 
 Al atom                                 
      3    624      5

  0.1262379E-14  0.1262379E-14  0.1262379E-14  0.4555394E-04
      1         -3.155362   1.000000
      2         20.524996   0.000000
      3         20.524996   0.000000
      4         20.524998   0.000000
      5         21.967603   0.000000

  0.3571429E-01  0.1259409E-14  0.1262234E-14  0.3644315E-03
      1         -3.120837   1.000000
      2         19.731110   0.000000
      3         20.372332   0.000000
      4         20.372338   0.000000
      5         22.173719   0.000000

  0.7142857E-01  0.1262879E-14  0.1259013E-14  0.3644315E-03
      1         -3.017238   1.000000
      2         18.382217   0.000000
      3         20.059373   0.000000
      4         20.059382   0.000000
      5         22.624781   0.000000

  0.1071429E+00  0.1262879E-14  0.1260140E-14  0.3644315E-03
      1         -2.844782   1.000000
      2         16.946071   0.000000
      3         19.726167   0.000000
      4         19.726179   0.000000
      5         22.630405   0.000000

  0.1428571E+00  0.1249001E-14  0.1255428E-14  0.3644315E-03
      1         -2.603666   1.000000
      2         15.504928   0.000000
      3         19.421958   0.000000
      4         19.421972   0.000000
      5         22.540979   0.000000

  0.1785714E+00  0.1249001E-14  0.1276248E-14  0.3644315E-03
      1         -2.294286   1.000000
      2         14.086437   0.000000
      3         19.162679   0.000000
      4         19.162695   0.000000
      5         22.425543   0.000000

  0.2142857E+00  0.1249001E-14  0.1250744E-14  0.3644315E-03
      1         -1.917046   1.000000
      2         12.703518   0.000000
      3         18.954760   0.000000
      4         18.954778   0.000000
      5         23.276382   0.000000

  0.2500000E+00  0.1235123E-14  0.1252996E-14  0.3644315E-03
      1         -1.472503   1.000000
      2         11.364072   0.000000
      3         18.801375   0.000000
      4         18.801394   0.000000
      5         22.637926   0.000000

  0.2857143E+00  0.1249001E-14  0.1265705E-14  0.3644315E-03
      1         -0.961250   1.000000
      2         10.072517   0.000000
      3         18.703713   0.000000
      4         18.703732   0.000000
      5         22.014433   0.000000

  0.3214286E+00  0.1249001E-14  0.1264535E-14  0.3644315E-03
      1         -0.384011   1.000000
      2          8.832237  -0.037130
      3         18.662862   0.000000
      4         18.662883   0.000000
      5         21.432110   0.000000

  0.3571429E+00  0.1276756E-14  0.1247143E-14  0.3644315E-03
      1          0.258456   1.000000
      2          7.645603   0.827498
      3         18.679356   0.000000
      4         18.679378   0.000000
      5         20.899931   0.000000

  0.3928571E+00  0.1249001E-14  0.1280643E-14  0.3644315E-03
      1          0.965268   1.000000
      2          6.514760   1.000000
      3         18.753506   0.000000
      4         18.753529   0.000000
      5         20.422004   0.000000

  0.4285714E+00  0.1221245E-14  0.1203049E-14  0.3644315E-03
      1          1.735277   1.000000
      2          5.441447   1.000000
      3         18.885678   0.000000
      4         18.885703   0.000000
      5         20.000879   0.000000

  0.4642857E+00  0.1249001E-14  0.1213413E-14  0.3644315E-03
      1          2.566309   1.000000
      2          4.428264   1.000000
      3         19.074383   0.000000
      4         19.074415   0.000000
      5         19.637643   0.000000

  0.5000000E+00  0.1221245E-14  0.1233156E-14  0.1822157E-03
      1          3.368369   1.000000
      2          3.565465   1.000000
      3         19.281412   0.000000
      4         19.281437   0.000000
      5         19.372481   0.000000

  0.3571429E-01  0.3571429E-01  0.1263069E-14  0.2733236E-03
      1         -3.109319   1.000000
      2         19.974703   0.000000
      3         19.974708   0.000000
      4         20.172219   0.000000
      5         21.853465   0.000000

  0.7142857E-01  0.3571429E-01  0.1256085E-14  0.1093294E-02
      1         -3.028744   1.000000
      2         18.835616   0.000000
      3         19.560245   0.000000
      4         20.192663   0.000000
      5         21.916717   0.000000

  0.1071429E+00  0.3571429E-01  0.1265910E-14  0.1093294E-02
      1         -2.879256   1.000000
      2         17.433695   0.000000
      3         19.175692   0.000000
      4         20.049109   0.000000
      5         22.295421   0.000000

  0.1428571E+00  0.3571429E-01  0.1253086E-14  0.1093294E-02
      1         -2.661034   1.000000
      2         15.998964   0.000000
      3         18.836853   0.000000
      4         19.813267   0.000000
      5         22.762693   0.000000

  0.1785714E+00  0.3571429E-01  0.1256511E-14  0.1093294E-02
      1         -2.374426   1.000000
      2         14.575898   0.000000
      3         18.549564   0.000000
      4         19.574282   0.000000
      5         22.798464   0.000000

  0.2142857E+00  0.3571429E-01  0.1222896E-14  0.1093294E-02
      1         -2.019826   1.000000
      2         13.182968   0.000000
      3         18.316933   0.000000
      4         19.367132   0.000000
      5         22.527194   0.000000

  0.2500000E+00  0.3571429E-01  0.1265705E-14  0.1093294E-02
      1         -1.597746   1.000000
      2         11.830267   0.000000
      3         18.140333   0.000000
      4         19.205423   0.000000
      5         23.583672   0.000000

  0.2857143E+00  0.3571429E-01  0.1248312E-14  0.1093294E-02
      1         -1.108764   1.000000
      2         10.523591   0.000000
      3         18.020803   0.000000
      4         19.095419   0.000000
      5         22.963514   0.000000

  0.3214286E+00  0.3571429E-01  0.1228575E-14  0.1093294E-02
      1         -0.553555   1.000000
      2          9.266809   0.000000
      3         17.958793   0.000000
      4         19.040183   0.000000
      5         22.374266   0.000000

  0.3571429E+00  0.3571429E-01  0.1229751E-14  0.1093294E-02
      1          0.067120   1.000000
      2          8.062738   0.370421
      3         17.954677   0.000000
      4         19.041577   0.000000
      5         21.830229   0.000000

  0.3928571E+00  0.3571429E-01  0.1263250E-14  0.1093294E-02
      1          0.752448   1.000000
      2          6.913602   1.006446
      3         18.008656   0.000000
      4         19.100618   0.000000
      5         21.337541   0.000000

  0.4285714E+00  0.3571429E-01  0.1213413E-14  0.1093294E-02
      1          1.501348   1.000000
      2          5.821310   1.000000
      3         18.120999   0.000000
      4         19.153775   0.000000
      5         20.899474   0.000000

  0.4642857E+00  0.3571429E-01  0.1191330E-14  0.1093294E-02
      1          2.312287   1.000000
      2          4.787950   1.000000
      3         18.291813   0.000000
      4         18.767846   0.000000
      5         20.517706   0.000000

  0.5000000E+00  0.3571429E-01  0.1211074E-14  0.1093294E-02
      1          3.175354   1.000000
      2          3.823705   1.000000
      3         18.437979   0.000000
      4         18.520612   0.000000
      5         20.192820   0.000000

 -0.4642857E+00  0.3571429E-01  0.1234139E-14  0.1093294E-02
      1          2.884635   1.000000
      2          4.134648   1.000000
      3         18.166973   0.000000
      4         18.807326   0.000000
      5         19.926472   0.000000

 -0.4285714E+00  0.3571429E-01  0.1288480E-14  0.1093294E-02
      1          2.035271   1.000000
      2          5.125603   1.000000
      3         17.954671   0.000000
      4         19.149457   0.000000
      5         19.720890   0.000000

 -0.3928571E+00  0.3571429E-01  0.1287311E-14  0.1093294E-02
      1          1.244734   1.000000
      2          6.178916   1.000000
      3         17.801792   0.000000
      4         19.489278   0.000000
      5         19.633818   0.000000

 -0.3571429E+00  0.3571429E-01  0.1286020E-14  0.1093294E-02
      1          0.516906   1.000000
      2          7.290304   1.071834
      3         17.707762   0.000000
      4         19.455312   0.000000
      5         20.035007   0.000000

 -0.3214286E+00  0.3571429E-01  0.1254750E-14  0.1093294E-02
      1         -0.146991   1.000000
      2          8.457930  -0.012960
      3         17.672684   0.000000
      4         19.422118   0.000000
      5         20.548540   0.000000

 -0.2857143E+00  0.3571429E-01  0.1237358E-14  0.1093294E-02
      1         -0.745930   1.000000
      2          9.679658   0.000000
      3         17.696251   0.000000
      4         19.442799   0.000000
      5         22.197300   0.000000

 -0.2500000E+00  0.3571429E-01  0.1258178E-14  0.1093294E-02
      1         -1.279154   1.000000
      2         10.953214   0.000000
      3         17.778194   0.000000
      4         19.518775   0.000000
      5         22.476690   0.000000

 -0.2142857E+00  0.3571429E-01  0.1277825E-14  0.1093294E-02
      1         -1.745898   1.000000
      2         12.275302   0.000000
      3         17.918000   0.000000
      4         19.648816   0.000000
      5         22.557077   0.000000

 -0.1785714E+00  0.3571429E-01  0.1276655E-14  0.1093294E-02
      1         -2.145558   1.000000
      2         13.641309   0.000000
      3         18.114947   0.000000
      4         19.830163   0.000000
      5         22.654123   0.000000

 -0.1428571E+00  0.3571429E-01  0.1263857E-14  0.1093294E-02
      1         -2.477537   1.000000
      2         15.043984   0.000000
      3         18.368146   0.000000
      4         20.056566   0.000000
      5         22.759016   0.000000

 -0.1071429E+00  0.3571429E-01  0.1270139E-14  0.1093294E-02
      1         -2.741397   1.000000
      2         16.469442   0.000000
      3         18.676535   0.000000
      4         20.311980   0.000000
      5         22.840966   0.000000

 -0.7142857E-01  0.3571429E-01  0.1265770E-14  0.1093294E-02
      1         -2.936735   1.000000
      2         17.886161   0.000000
      3         19.042186   0.000000
      4         20.546799   0.000000
      5         22.840384   0.000000

 -0.3571429E-01  0.3571429E-01  0.1258836E-14  0.5466472E-03
      1         -3.063276   1.000000
      2         19.142822   0.000000
      3         19.540510   0.000000
      4         20.614185   0.000000
      5         22.641525   0.000000

  0.7142857E-01  0.7142857E-01  0.1264737E-14  0.2733236E-03
      1         -2.971228   1.000000
      2         19.093478   0.000000
      3         19.093485   0.000000
      4         19.396581   0.000000
      5         21.537389   0.000000

  0.1071429E+00  0.7142857E-01  0.1254284E-14  0.1093294E-02
      1         -2.844775   1.000000
      2         17.916135   0.000000
      3         18.673318   0.000000
      4         19.484788   0.000000
      5         21.513979   0.000000

  0.1428571E+00  0.7142857E-01  0.1250744E-14  0.1093294E-02
      1         -2.649550   1.000000
      2         16.518639   0.000000
      3         18.305729   0.000000
      4         19.472110   0.000000
      5         21.816405   0.000000

  0.1785714E+00  0.7142857E-01  0.1269219E-14  0.1093294E-02
      1         -2.385871   1.000000
      2         15.105543   0.000000
      3         17.993126   0.000000
      4         19.329069   0.000000
      5         22.151372   0.000000

  0.2142857E+00  0.7142857E-01  0.1268050E-14  0.1093294E-02
      1         -2.054096   1.000000
      2         13.710769   0.000000
      3         17.737108   0.000000
      4         19.155981   0.000000
      5         21.693045   0.000000

  0.2500000E+00  0.7142857E-01  0.1278413E-14  0.1093294E-02
      1         -1.654701   1.000000
      2         12.349974   0.000000
      3         17.538343   0.000000
      4         19.001052   0.000000
      5         20.988198   0.000000

  0.2857143E+00  0.7142857E-01  0.1244798E-14  0.1093294E-02
      1         -1.188252   1.000000
      2         11.031518   0.000000
      3         17.397359   0.000000
      4         18.885650   0.000000
      5         20.302743   0.000000

  0.3214286E+00  0.7142857E-01  0.1257506E-14  0.1093294E-02
      1         -0.655382   1.000000
      2          9.760562   0.000000
      3         17.314380   0.000000
      4         18.818954   0.000000
      5         19.663642   0.000000

  0.3571429E+00  0.7142857E-01  0.1272560E-14  0.1093294E-02
      1         -0.056841   1.000000
      2          8.540762  -0.048614
      3         17.289655   0.000000
      4         18.802360   0.000000
      5         19.081984   0.000000

  0.3928571E+00  0.7142857E-01  0.1306059E-14  0.1093294E-02
      1          0.606592   1.000000
      2          7.374665   1.046511
      3         17.323349   0.000000
      4         18.536720   0.000000
      5         18.862648   0.000000

  0.4285714E+00  0.7142857E-01  0.1256222E-14  0.1093294E-02
      1          1.333898   1.000000
      2          6.264470   1.000000
      3         17.415576   0.000000
      4         18.067878   0.000000
      5         18.962707   0.000000

  0.4642857E+00  0.7142857E-01  0.1206384E-14  0.1093294E-02
      1          2.123801   1.000000
      2          5.212198   1.000000
      3         17.566429   0.000000
      4         17.654671   0.000000
      5         19.125597   0.000000

  0.5000000E+00  0.7142857E-01  0.1193682E-14  0.1093294E-02
      1          2.972280   1.000000
      2          4.222320   1.000000
      3         17.300411   0.000000
      4         17.775941   0.000000
      5         21.115776   0.000000

 -0.4642857E+00  0.7142857E-01  0.1260725E-14  0.1093294E-02
      1          3.262587   1.000000
      2          3.911726   1.000000
      3         17.005571   0.000000
      4         18.044102   0.000000
      5         19.630862   0.000000

 -0.4285714E+00  0.7142857E-01  0.1287311E-14  0.1093294E-02
      1          2.400699   1.000000
      2          4.874462   1.000000
      3         16.771101   0.000000
      4         18.370408   0.000000
      5         20.602883   0.000000

 -0.3928571E+00  0.7142857E-01  0.1269919E-14  0.1093294E-02
      1          1.590392   1.000000
      2          5.906557   1.000000
      3         16.597048   0.000000
      4         18.753982   0.000000
      5         20.433713   0.000000

 -0.3571429E+00  0.7142857E-01  0.1284851E-14  0.1093294E-02
      1          0.842017   1.000000
      2          6.997312   1.021121
      3         16.483431   0.000000
      4         19.193099   0.000000
      5         20.325047   0.000000

 -0.3214286E+00  0.7142857E-01  0.1253581E-14  0.1093294E-02
      1          0.157163   1.000000
      2          8.144420   0.278619
      3         16.430301   0.000000
      4         19.677715   0.000000
      5         20.284473   0.000000

 -0.2857143E+00  0.7142857E-01  0.1255832E-14  0.1093294E-02
      1         -0.463122   1.000000
      2          9.345581   0.000000
      3         16.437890   0.000000
      4         20.114826   0.000000
      5         20.404960   0.000000

 -0.2500000E+00  0.7142857E-01  0.1248897E-14  0.1093294E-02
      1         -1.017970   1.000000
      2         10.598064   0.000000
      3         16.506305   0.000000
      4         20.265374   0.000000
      5         22.310602   0.000000

 -0.2142857E+00  0.7142857E-01  0.1261605E-14  0.1093294E-02
      1         -1.506644   1.000000
      2         11.897901   0.000000
      3         16.636007   0.000000
      4         20.385680   0.000000
      5         23.037357   0.000000

 -0.1785714E+00  0.7142857E-01  0.1271968E-14  0.1093294E-02
      1         -1.928453   1.000000
      2         13.238663   0.000000
      3         16.828257   0.000000
      4         20.542416   0.000000
      5         23.166310   0.000000

 -0.1428571E+00  0.7142857E-01  0.1263226E-14  0.1093294E-02
      1         -2.282832   1.000000
      2         14.607963   0.000000
      3         17.088057   0.000000
      4         20.727504   0.000000
      5         23.227950   0.000000

 -0.1071429E+00  0.7142857E-01  0.1274736E-14  0.1093294E-02
      1         -2.569247   1.000000
      2         15.971405   0.000000
      3         17.435785   0.000000
      4         20.893507   0.000000
      5         23.235366   0.000000

 -0.7142857E-01  0.7142857E-01  0.1266544E-14  0.5466472E-03
      1         -2.787334   1.000000
      2         17.174935   0.000000
      3         17.998900   0.000000
      4         20.883660   0.000000
      5         23.115688   0.000000

  0.1071429E+00  0.1071429E+00  0.1260054E-14  0.2733236E-03
      1         -2.741387   1.000000
      2         18.224249   0.000000
      3         18.224256   0.000000
      4         18.512010   0.000000
      5         21.079557   0.000000

  0.1428571E+00  0.1071429E+00  0.1222896E-14  0.1093294E-02
      1         -2.569233   1.000000
      2         17.039415   0.000000
      3         17.831004   0.000000
      4         18.668043   0.000000
      5         21.005727   0.000000

  0.1785714E+00  0.1071429E+00  0.1251827E-14  0.1093294E-02
      1         -2.328602   1.000000
      2         15.663929   0.000000
      3         17.494812   0.000000
      4         18.736164   0.000000
      5         21.211450   0.000000

  0.2142857E+00  0.1071429E+00  0.1264535E-14  0.1093294E-02
      1         -2.019802   1.000000
      2         14.280844   0.000000
      3         17.216378   0.000000
      4         18.660485   0.000000
      5         20.750336   0.000000

  0.2500000E+00  0.1071429E+00  0.1258676E-14  0.1093294E-02
      1         -1.643299   1.000000
      2         12.919269   0.000000
      3         16.995900   0.000000
      4         18.539037   0.000000
      5         19.996147   0.000000

  0.2857143E+00  0.1071429E+00  0.1257506E-14  0.1093294E-02
      1         -1.199615   1.000000
      2         11.593603   0.000000
      3         16.833732   0.000000
      4         18.426616   0.000000
      5         19.277816   0.000000

  0.3214286E+00  0.1071429E+00  0.1256337E-14  0.1093294E-02
      1         -0.689363   1.000000
      2         10.311573   0.000000
      3         16.729979   0.000000
      4         18.332222   0.000000
      5         18.629450   0.000000

  0.3571429E+00  0.1071429E+00  0.1255168E-14  0.1093294E-02
      1         -0.113276   1.000000
      2          9.078146  -0.001802
      3         16.684768   0.000000
      4         17.957235   0.000000
      5         18.365983   0.000000

  0.3928571E+00  0.1071429E+00  0.1288667E-14  0.1093294E-02
      1          0.527896   1.000000
      2          7.896733   0.556043
      3         16.698199   0.000000
      4         17.412700   0.000000
      5         18.384317   0.000000

  0.4285714E+00  0.1071429E+00  0.1178628E-14  0.1093294E-02
      1          1.233164   1.000000
      2          6.769945   1.000000
      3         16.770325   0.000000
      4         16.916985   0.000000
      5         18.470825   0.000000

  0.4642857E+00  0.1071429E+00  0.1184301E-14  0.1093294E-02
      1          2.001411   1.000000
      2          5.699957   1.000000
      3         16.478825   0.000000
      4         16.901257   0.000000
      5         18.618707   0.000000

  0.5000000E+00  0.1071429E+00  0.1176289E-14  0.1093294E-02
      1          2.830115   1.000000
      2          4.689873   1.000000
      3         16.100778   0.000000
      4         17.091111   0.000000
      5         18.827854   0.000000

 -0.4642857E+00  0.1071429E+00  0.1271088E-14  0.1093294E-02
      1          3.624116   1.000000
      2          3.835218   1.000000
      3         15.783285   0.000000
      4         17.339733   0.000000
      5         19.097568   0.000000

 -0.4285714E+00  0.1071429E+00  0.1283797E-14  0.1093294E-02
      1          2.830591   1.000000
      2          4.688687   1.000000
      3         15.526912   0.000000
      4         17.646997   0.000000
      5         19.427229   0.000000

 -0.3928571E+00  0.1071429E+00  0.1282627E-14  0.1093294E-02
      1          2.001713   1.000000
      2          5.698063   1.000000
      3         15.332154   0.000000
      4         18.012633   0.000000
      5         19.816458   0.000000

 -0.3571429E+00  0.1071429E+00  0.1281336E-14  0.1093294E-02
      1          1.233347   1.000000
      2          6.766868   1.000000
      3         15.199488   0.000000
      4         18.436042   0.000000
      5         20.263820   0.000000

 -0.3214286E+00  0.1071429E+00  0.1272055E-14  0.1093294E-02
      1          0.527999   1.000000
      2          7.891764   0.561904
      3         15.129249   0.000000
      4         18.916148   0.000000
      5         20.767511   0.000000

 -0.2857143E+00  0.1071429E+00  0.1260429E-14  0.1093294E-02
      1         -0.113219   1.000000
      2          9.069767  -0.002190
      3         15.122478   0.000000
      4         19.449651   0.000000
      5         21.325060   0.000000

 -0.2500000E+00  0.1071429E+00  0.1253494E-14  0.1093294E-02
      1         -0.689335   1.000000
      2         10.297047   0.000000
      3         15.180703   0.000000
      4         20.030376   0.000000
      5         21.932181   0.000000

 -0.2142857E+00  0.1071429E+00  0.1267913E-14  0.1093294E-02
      1         -1.199608   1.000000
      2         11.566865   0.000000
      3         15.306961   0.000000
      4         20.636719   0.000000
      5         22.586950   0.000000

 -0.1785714E+00  0.1071429E+00  0.1276565E-14  0.1093294E-02
      1         -1.643303   1.000000
      2         12.865169   0.000000
      3         15.510681   0.000000
      4         21.157817   0.000000
      5         23.297057   0.000000

 -0.1428571E+00  0.1071429E+00  0.1261201E-14  0.1093294E-02
      1         -2.019814   1.000000
      2         14.151540   0.000000
      3         15.824954   0.000000
      4         21.390237   0.000000
      5         23.809244   0.000000

 -0.1071429E+00  0.1071429E+00  0.1262852E-14  0.5466472E-03
      1         -2.328616   1.000000
      2         15.269021   0.000000
      3         16.393314   0.000000
      4         21.330500   0.000000
      5         23.562929   0.000000

  0.1428571E+00  0.1428571E+00  0.1256395E-14  0.2733236E-03
      1         -2.420221   1.000000
      2         17.413993   0.000000
      3         17.414000   0.000000
      4         17.638758   0.000000
      5         20.541183   0.000000

  0.1785714E+00  0.1428571E+00  0.1252881E-14  0.1093294E-02
      1         -2.202708   1.000000
      2         16.225786   0.000000
      3         17.055228   0.000000
      4         17.869413   0.000000
      5         20.419218   0.000000

  0.2142857E+00  0.1428571E+00  0.1235489E-14  0.1093294E-02
      1         -1.917004   1.000000
      2         14.880271   0.000000
      3         16.754871   0.000000
      4         17.996278   0.000000
      5         19.799121   0.000000

  0.2500000E+00  0.1428571E+00  0.1275953E-14  0.1093294E-02
      1         -1.563557   1.000000
      2         13.531137   0.000000
      3         16.513119   0.000000
      4         17.969935   0.000000
      5         19.001513   0.000000

  0.2857143E+00  0.1428571E+00  0.1274783E-14  0.1093294E-02
      1         -1.142841   1.000000
      2         12.205638   0.000000
      3         16.330145   0.000000
      4         17.870989   0.000000
      5         18.272921   0.000000

  0.3214286E+00  0.1428571E+00  0.1241168E-14  0.1093294E-02
      1         -0.655461   1.000000
      2         10.917004   0.000000
      3         16.205743   0.000000
      4         17.489432   0.000000
      5         17.889657   0.000000

  0.3571429E+00  0.1428571E+00  0.1256222E-14  0.1093294E-02
      1         -0.102114   1.000000
      2          9.672928   0.000000
      3         16.140145   0.000000
      4         16.872374   0.000000
      5         17.835157   0.000000

  0.3928571E+00  0.1428571E+00  0.1289721E-14  0.1093294E-02
      1          0.516461   1.000000
      2          8.478279  -0.013220
      3         16.133343   0.000000
      4         16.294356   0.000000
      5         17.849106   0.000000

  0.4285714E+00  0.1428571E+00  0.1212128E-14  0.1093294E-02
      1          1.199283   1.000000
      2          7.336430   1.050076
      3         15.772291   0.000000
      4         16.185367   0.000000
      5         17.921729   0.000000

  0.4642857E+00  0.1428571E+00  0.1217801E-14  0.1093294E-02
      1          1.945344   1.000000
      2          6.250059   1.000000
      3         15.309986   0.000000
      4         16.296315   0.000000
      5         18.054352   0.000000

  0.5000000E+00  0.1428571E+00  0.1209789E-14  0.1093294E-02
      1          2.752658   1.000000
      2          5.221803   1.000000
      3         14.908241   0.000000
      4         16.466082   0.000000
      5         18.247488   0.000000

 -0.4642857E+00  0.1428571E+00  0.1232854E-14  0.1093294E-02
      1          3.609347   1.000000
      2          4.264212   1.000000
      3         14.568156   0.000000
      4         16.695051   0.000000
      5         18.502239   0.000000

 -0.4285714E+00  0.1428571E+00  0.1287196E-14  0.1093294E-02
      1          3.323082   1.000000
      2          4.569511   1.000000
      3         14.290125   0.000000
      4         16.982745   0.000000
      5         18.817657   0.000000

 -0.3928571E+00  0.1428571E+00  0.1267458E-14  0.1093294E-02
      1          2.477881   1.000000
      2          5.553474   1.000000
      3         14.075251   0.000000
      4         17.329267   0.000000
      5         19.193438   0.000000

 -0.3571429E+00  0.1428571E+00  0.1262746E-14  0.1093294E-02
      1          1.690315   1.000000
      2          6.598703   1.000000
      3         13.924272   0.000000
      4         17.734488   0.000000
      5         19.628443   0.000000

 -0.3214286E+00  0.1428571E+00  0.1267343E-14  0.1093294E-02
      1          0.964949   1.000000
      2          7.699108   0.781589
      3         13.838427   0.000000
      4         18.197601   0.000000
      5         20.120907   0.000000

 -0.2857143E+00  0.1428571E+00  0.1233728E-14  0.1093294E-02
      1          0.303286   1.000000
      2          8.850177  -0.036828
      3         13.819984   0.000000
      4         18.717453   0.000000
      5         20.668412   0.000000

 -0.2500000E+00  0.1428571E+00  0.1244726E-14  0.1093294E-02
      1         -0.293737   1.000000
      2         10.044735   0.000000
      3         13.873755   0.000000
      4         19.292084   0.000000
      5         21.267402   0.000000

 -0.2142857E+00  0.1428571E+00  0.1263200E-14  0.1093294E-02
      1         -0.825229   1.000000
      2         11.267184   0.000000
      3         14.012313   0.000000
      4         19.918182   0.000000
      5         21.913220   0.000000

 -0.1785714E+00  0.1428571E+00  0.1253920E-14  0.1093294E-02
      1         -1.290510   1.000000
      2         12.471653   0.000000
      3         14.276869   0.000000
      4         20.588498   0.000000
      5         22.597261   0.000000

 -0.1428571E+00  0.1428571E+00  0.1267866E-14  0.5466472E-03
      1         -1.688885   1.000000
      2         13.500765   0.000000
      3         14.817556   0.000000
      4         21.284026   0.000000
      5         23.302501   0.000000

  0.1785714E+00  0.1785714E+00  0.1265589E-14  0.2733236E-03
      1         -2.008364   1.000000
      2         16.674523   0.000000
      3         16.674530   0.000000
      4         16.819644   0.000000
      5         19.731401   0.000000

  0.2142857E+00  0.1785714E+00  0.1248197E-14  0.1093294E-02
      1         -1.745863   1.000000
      2         15.483753   0.000000
      3         16.352817   0.000000
      4         17.128346   0.000000
      5         18.851103   0.000000

  0.2500000E+00  0.1785714E+00  0.1291006E-14  0.1093294E-02
      1         -1.415598   1.000000
      2         14.172705   0.000000
      3         16.090091   0.000000
      4         17.295633   0.000000
      5         18.025622   0.000000

  0.2857143E+00  0.1785714E+00  0.1241168E-14  0.1093294E-02
      1         -1.018026   1.000000
      2         12.860160   0.000000
      3         15.886326   0.000000
      4         17.141812   0.000000
      5         17.423739   0.000000

  0.3214286E+00  0.1785714E+00  0.1283977E-14  0.1093294E-02
      1         -0.553735   1.000000
      2         11.572220   0.000000
      3         15.741505   0.000000
      4         16.474516   0.000000
      5         17.336542   0.000000

  0.3571429E+00  0.1785714E+00  0.1238829E-14  0.1093294E-02
      1         -0.023389   1.000000
      2         10.321981   0.000000
      3         15.655699   0.000000
      4         15.814328   0.000000
      5         17.306687   0.000000

  0.3928571E+00  0.1785714E+00  0.1272329E-14  0.1093294E-02
      1          0.572245   1.000000
      2          9.117002   0.000000
      3         15.208231   0.000000
      4         15.628656   0.000000
      5         17.317185   0.000000

  0.4285714E+00  0.1785714E+00  0.1190045E-14  0.1093294E-02
      1          1.232281   1.000000
      2          7.962228   0.481042
      3         14.661215   0.000000
      4         15.660602   0.000000
      5         17.378701   0.000000

  0.4642857E+00  0.1785714E+00  0.1232855E-14  0.1093294E-02
      1          1.955643   1.000000
      2          6.860980   1.000034
      3         14.174627   0.000000
      4         15.751423   0.000000
      5         17.496522   0.000000

  0.5000000E+00  0.1785714E+00  0.1192397E-14  0.1093294E-02
      1          2.740654   1.000000
      2          5.816258   1.000000