    1    1    1    1
  0.2150000E+02  0.3121173E-09  0.3121173E-09  0.3121173E-09  0.5000000E-15
   1.0000000000000000E-004
  CAR 
 Al atom                                 
      3    455      5

  0.1262379E-14  0.1262379E-14  0.1262379E-14  0.6400000E-04
      1         -3.931830   1.000000
      2         16.480503   0.000000
      3         16.759953   0.000000
      4         16.759953   0.000000
      5         16.759957   0.000000

  0.4000000E-01  0.1252470E-14  0.1260026E-14  0.5120000E-03
      1         -3.895437   1.000000
      2         15.443202   0.000000
      3         16.111750   0.000000
      4         16.111753   0.000000
      5         17.178757   0.000000

  0.8000000E-01  0.1249001E-14  0.1261419E-14  0.5120000E-03
      1         -3.786257   1.000000
      2         14.115527   0.000000
      3         15.687430   0.000000
      4         15.687439   0.000000
      5         17.718427   0.000000

  0.1200000E+00  0.1249001E-14  0.1255538E-14  0.5120000E-03
      1         -3.604487   1.000000
      2         12.740299   0.000000
      3         15.316233   0.000000
      4         15.316242   0.000000
      5         17.756895   0.000000

  0.1600000E+00  0.1249001E-14  0.1258834E-14  0.5120000E-03
      1         -3.350328   1.000000
      2         11.370911   0.000000
      3         15.003745   0.000000
      4         15.003754   0.000000
      5         17.692492   0.000000

  0.2000000E+00  0.1235123E-14  0.1268808E-14  0.5120000E-03
      1         -3.024180   1.000000
      2         10.031300   0.000000
      3         14.751082   0.000000
      4         14.751092   0.000000
      5         17.601620   0.000000

  0.2400000E+00  0.1193490E-14  0.1251288E-14  0.5120000E-03
      1         -2.626444   1.000000
      2          8.734666   0.000000
      3         14.557985   0.000000
      4         14.557995   0.000000
      5         17.521546   0.000000

  0.2800000E+00  0.1221245E-14  0.1258948E-14  0.5120000E-03
      1         -2.157755   1.000000
      2          7.488325   0.000000
      3         14.423050   0.000000
      4         14.423060   0.000000
      5         17.471167   0.000000

  0.3200000E+00  0.1165734E-14  0.1250269E-14  0.5120000E-03
      1         -1.618791   1.000000
      2          6.297094  -0.042401
      3         14.343805   0.000000
      4         14.343814   0.000000
      5         17.123960   0.000000

  0.3600000E+00  0.1249001E-14  0.1257929E-14  0.5120000E-03
      1         -1.010609   1.000000
      2          5.164793   0.854837
      3         14.314948   0.000000
      4         14.314958   0.000000
      5         16.666929   0.000000

  0.4000000E+00  0.1193490E-14  0.1263128E-14  0.5120000E-03
      1         -0.334760   1.000000
      2          4.094697   1.000000
      3         14.327129   0.000000
      4         14.327140   0.000000
      5         16.284916   0.000000

  0.4400000E+00  0.1193490E-14  0.1215278E-14  0.5120000E-03
      1          0.404671   1.000000
      2          3.091893   1.000000
      3         14.362953   0.000000
      4         14.362964   0.000000
      5         16.000309   0.000000

  0.4800000E+00  0.1193490E-14  0.1255843E-14  0.5120000E-03
      1          1.181076   1.000000
      2          2.183654   1.000000
      3         14.394550   0.000000
      4         14.394561   0.000000
      5         15.843840   0.000000

  0.4000000E-01  0.4000000E-01  0.1259517E-14  0.3840000E-03
      1         -3.883303   1.000000
      2         15.615864   0.000000
      3         15.615870   0.000000
      4         16.348245   0.000000
      5         16.416047   0.000000

  0.8000000E-01  0.4000000E-01  0.1255538E-14  0.1536000E-02
      1         -3.798381   1.000000
      2         14.561444   0.000000
      3         15.167896   0.000000
      4         16.061896   0.000000
      5         16.682418   0.000000

  0.1200000E+00  0.4000000E-01  0.1255029E-14  0.1536000E-02
      1         -3.640818   1.000000
      2         13.216837   0.000000
      3         14.777207   0.000000
      4         15.707215   0.000000
      5         17.200194   0.000000

  0.1600000E+00  0.4000000E-01  0.1251386E-14  0.1536000E-02
      1         -3.410791   1.000000
      2         11.848530   0.000000
      3         14.446931   0.000000
      4         15.386649   0.000000
      5         17.602974   0.000000

  0.2000000E+00  0.4000000E-01  0.1243677E-14  0.1536000E-02
      1         -3.108649   1.000000
      2         10.500127   0.000000
      3         14.178096   0.000000
      4         15.114488   0.000000
      5         17.676493   0.000000

  0.2400000E+00  0.4000000E-01  0.1248876E-14  0.1536000E-02
      1         -2.734780   1.000000
      2          9.189722   0.000000
      3         13.971143   0.000000
      4         14.893609   0.000000
      5         17.410017   0.000000

  0.2800000E+00  0.4000000E-01  0.1305780E-14  0.1536000E-02
      1         -2.289745   1.000000
      2          7.926955   0.000000
      3         13.825865   0.000000
      4         14.721660   0.000000
      5         16.939538   0.000000

  0.3200000E+00  0.4000000E-01  0.1247857E-14  0.1536000E-02
      1         -1.774199   1.000000
      2          6.717483   0.000000
      3         13.741831   0.000000
      4         14.590405   0.000000
      5         16.454783   0.000000

  0.3600000E+00  0.4000000E-01  0.1227762E-14  0.1536000E-02
      1         -1.189050   1.000000
      2          5.565675   0.396289
      3         13.717933   0.000000
      4         14.482563   0.000000
      5         16.038986   0.000000

  0.4000000E+00  0.4000000E-01  0.1260716E-14  0.1536000E-02
      1         -0.535598   1.000000
      2          4.474768   1.003920
      3         13.752264   0.000000
      4         14.368206   0.000000
      5         15.742637   0.000000

  0.4400000E+00  0.4000000E-01  0.1255843E-14  0.1536000E-02
      1          0.183363   1.000000
      2          3.448855   1.000000
      3         13.841541   0.000000
      4         14.216583   0.000000
      5         15.604066   0.000000

  0.4800000E+00  0.4000000E-01  0.1271114E-14  0.1536000E-02
      1          0.956148   1.000000
      2          2.500411   1.000000
      3         13.980090   0.000000
      4         14.028601   0.000000
      5         15.626061   0.000000

 -0.4800000E+00  0.4000000E-01  0.1245804E-14  0.1536000E-02
      1          1.427000   1.000000
      2          1.985622   1.000000
      3         13.835591   0.000000
      4         14.157631   0.000000
      5         15.778998   0.000000

 -0.4400000E+00  0.4000000E-01  0.1306514E-14  0.1536000E-02
      1          0.694752   1.000000
      2          2.805728   1.000000
      3         13.667294   0.000000
      4         14.355933   0.000000
      5         16.011756   0.000000

 -0.4000000E+00  0.4000000E-01  0.1304102E-14  0.1536000E-02
      1         -0.063254   1.000000
      2          3.783204   1.000000
      3         13.541481   0.000000
      4         14.547734   0.000000
      5         16.030097   0.000000

 -0.3600000E+00  0.4000000E-01  0.1270129E-14  0.1536000E-02
      1         -0.760899   1.000000
      2          4.831376   1.074303
      3         13.467467   0.000000
      4         14.709074   0.000000
      5         16.201895   0.000000

 -0.3200000E+00  0.4000000E-01  0.1257645E-14  0.1536000E-02
      1         -1.391768   1.000000
      2          5.942939   0.001612
      3         13.450272   0.000000
      4         14.843130   0.000000
      5         16.520061   0.000000

 -0.2800000E+00  0.4000000E-01  0.1259038E-14  0.1536000E-02
      1         -1.953841   1.000000
      2          7.114268   0.000000
      3         13.492491   0.000000
      4         14.976449   0.000000
      5         16.949635   0.000000

 -0.2400000E+00  0.4000000E-01  0.1218798E-14  0.1536000E-02
      1         -2.445963   1.000000
      2          8.341964   0.000000
      3         13.595751   0.000000
      4         15.134732   0.000000
      5         17.443733   0.000000

 -0.2000000E+00  0.4000000E-01  0.1254886E-14  0.1536000E-02
      1         -2.867349   1.000000
      2          9.621222   0.000000
      3         13.760705   0.000000
      4         15.333881   0.000000
      5         17.920601   0.000000

 -0.1600000E+00  0.4000000E-01  0.1268666E-14  0.1536000E-02
      1         -3.217356   1.000000
      2         10.945399   0.000000
      3         13.987357   0.000000
      4         15.582275   0.000000
      5         17.898616   0.000000

 -0.1200000E+00  0.4000000E-01  0.1272577E-14  0.1536000E-02
      1         -3.495506   1.000000
      2         12.302534   0.000000
      3         14.275187   0.000000
      4         15.883109   0.000000
      5         17.941653   0.000000

 -0.8000000E-01  0.4000000E-01  0.1266388E-14  0.1536000E-02
      1         -3.701405   1.000000
      2         13.669636   0.000000
      3         14.623363   0.000000
      4         16.232487   0.000000
      5         17.310353   0.000000

 -0.4000000E-01  0.4000000E-01  0.1258140E-14  0.7680000E-03
      1         -3.834773   1.000000
      2         14.947730   0.000000
      3         15.073290   0.000000
      4         16.520226   0.000000
      5         16.853688   0.000000

  0.8000000E-01  0.8000000E-01  0.1246187E-14  0.3840000E-03
      1         -3.737753   1.000000
      2         14.699084   0.000000
      3         14.699089   0.000000
      4         15.679220   0.000000
      5         15.983771   0.000000

  0.1200000E+00  0.8000000E-01  0.1261458E-14  0.1536000E-02
      1         -3.604456   1.000000
      2         13.693741   0.000000
      3         14.288124   0.000000
      4         15.481114   0.000000
      5         16.076427   0.000000

  0.1600000E+00  0.8000000E-01  0.1257816E-14  0.1536000E-02
      1         -3.398654   1.000000
      2         12.367413   0.000000
      3         13.937839   0.000000
      4         15.195641   0.000000
      5         16.535954   0.000000

  0.2000000E+00  0.8000000E-01  0.1258948E-14  0.1536000E-02
      1         -3.120657   1.000000
      2         11.022835   0.000000
      3         13.649560   0.000000
      4         14.916293   0.000000
      5         16.797220   0.000000

  0.2400000E+00  0.8000000E-01  0.1264147E-14  0.1536000E-02
      1         -2.770825   1.000000
      2          9.704497   0.000000
      3         13.423818   0.000000
      4         14.670878   0.000000
      5         16.535076   0.000000

  0.2800000E+00  0.8000000E-01  0.1257929E-14  0.1536000E-02
      1         -2.349660   1.000000
      2          8.428573   0.000000
      3         13.260903   0.000000
      4         14.456929   0.000000
      5         16.046037   0.000000

  0.3200000E+00  0.8000000E-01  0.1263128E-14  0.1536000E-02
      1         -1.857777   1.000000
      2          7.203038   0.000000
      3         13.160784   0.000000
      4         14.254058   0.000000
      5         15.580866   0.000000

  0.3600000E+00  0.8000000E-01  0.1225350E-14  0.1536000E-02
      1         -1.295982   1.000000
      2          6.033145  -0.043462
      3         13.123049   0.000000
      4         14.024334   0.000000
      5         15.238898   0.000000

  0.4000000E+00  0.8000000E-01  0.1275988E-14  0.1536000E-02
      1         -0.665409   1.000000
      2          4.922671   1.049906
      3         13.147081   0.000000
      4         13.740136   0.000000
      5         15.066504   0.000000

  0.4400000E+00  0.8000000E-01  0.1263503E-14  0.1536000E-02
      1          0.031926   1.000000
      2          3.875250   1.000000
      3         13.231922   0.000000
      4         13.422752   0.000000
      5         15.050293   0.000000

  0.4800000E+00  0.8000000E-01  0.1251019E-14  0.1536000E-02
      1          0.789743   1.000000
      2          2.898220   1.000000
      3         13.113168   0.000000
      4         13.376160   0.000000
      5         15.152732   0.000000

 -0.4800000E+00  0.8000000E-01  0.1243392E-14  0.1536000E-02
      1          1.523153   1.000000
      2          2.077020   1.000000
      3         12.838722   0.000000
      4         13.577310   0.000000
      5         15.348305   0.000000

 -0.4400000E+00  0.8000000E-01  0.1272541E-14  0.1536000E-02
      1          1.051189   1.000000
      2          2.592816   1.000000
      3         12.613305   0.000000
      4         13.831331   0.000000
      5         15.623391   0.000000

 -0.4000000E+00  0.8000000E-01  0.1287812E-14  0.1536000E-02
      1          0.278429   1.000000
      2          3.540924   1.000000
      3         12.444008   0.000000
      4         14.131563   0.000000
      5         15.970761   0.000000

 -0.3600000E+00  0.8000000E-01  0.1253839E-14  0.1536000E-02
      1         -0.440261   1.000000
      2          4.566019   1.019759
      3         12.334517   0.000000
      4         14.466559   0.000000
      5         16.498665   0.000000

 -0.3200000E+00  0.8000000E-01  0.1255233E-14  0.1536000E-02
      1         -1.093411   1.000000
      2          5.655696   0.289873
      3         12.287013   0.000000
      4         14.818017   0.000000
      5         16.563967   0.000000

 -0.2800000E+00  0.8000000E-01  0.1265468E-14  0.1536000E-02
      1         -1.678273   1.000000
      2          6.805742   0.000000
      3         12.302631   0.000000
      4         15.161975   0.000000
      5         16.751860   0.000000

 -0.2400000E+00  0.8000000E-01  0.1230264E-14  0.1536000E-02
      1         -2.193565   1.000000
      2          8.012525   0.000000
      3         12.382119   0.000000
      4         15.481085   0.000000
      5         17.065282   0.000000

 -0.2000000E+00  0.8000000E-01  0.1254377E-14  0.1536000E-02
      1         -2.638369   1.000000
      2          9.270877   0.000000
      3         12.526091   0.000000
      4         15.779863   0.000000
      5         17.454910   0.000000

 -0.1600000E+00  0.8000000E-01  0.1270674E-14  0.1536000E-02
      1         -3.012046   1.000000
      2         10.572972   0.000000
      3         12.735656   0.000000
      4         16.077627   0.000000
      5         17.728398   0.000000

 -0.1200000E+00  0.8000000E-01  0.1263226E-14  0.1536000E-02
      1         -3.314021   1.000000
      2         11.900954   0.000000
      3         13.016447   0.000000
      4         16.383647   0.000000
      5         17.530630   0.000000

 -0.8000000E-01  0.8000000E-01  0.1254806E-14  0.7680000E-03
      1         -3.543923   1.000000
      2         13.126177   0.000000
      3         13.472507   0.000000
      4         16.594983   0.000000
      5         17.135981   0.000000

  0.1200000E+00  0.1200000E+00  0.1236327E-14  0.3840000E-03
      1         -3.495447   1.000000
      2         13.856480   0.000000
      3         13.856485   0.000000
      4         14.858068   0.000000
      5         15.449027   0.000000

  0.1600000E+00  0.1200000E+00  0.1259209E-14  0.1536000E-02
      1         -3.313935   1.000000
      2         12.886207   0.000000
      3         13.485496   0.000000
      4         14.740268   0.000000
      5         15.414979   0.000000

  0.2000000E+00  0.1200000E+00  0.1242658E-14  0.1536000E-02
      1         -3.060191   1.000000
      2         11.587227   0.000000
      3         13.176621   0.000000
      4         14.516079   0.000000
      5         15.697290   0.000000

  0.2400000E+00  0.1200000E+00  0.1247857E-14  0.1536000E-02
      1         -2.734526   1.000000
      2         10.273751   0.000000
      3         12.930574   0.000000
      4         14.246745   0.000000
      5         15.569736   0.000000

  0.2800000E+00  0.1200000E+00  0.1273201E-14  0.1536000E-02
      1         -2.337420   1.000000
      2          8.990266   0.000000
      3         12.747748   0.000000
      4         13.968692   0.000000
      5         15.132805   0.000000

  0.3200000E+00  0.1200000E+00  0.1260716E-14  0.1536000E-02
      1         -1.869431   1.000000
      2          7.751781   0.000000
      3         12.628195   0.000000
      4         13.648657   0.000000
      5         14.742074   0.000000

  0.3600000E+00  0.1200000E+00  0.1240621E-14  0.1536000E-02
      1         -1.331289   1.000000
      2          6.565865  -0.001460
      3         12.571928   0.000000
      4         13.261200   0.000000
      5         14.510060   0.000000

  0.4000000E+00  0.1200000E+00  0.1228137E-14  0.1536000E-02
      1         -0.723981   1.000000
      2          5.437317   0.547003
      3         12.578630   0.000000
      4         12.839028   0.000000
      5         14.428003   0.000000

  0.4400000E+00  0.1200000E+00  0.1215653E-14  0.1536000E-02
      1         -0.049071   1.000000
      2          4.369911   1.000000
      3         12.428592   0.000000
      4         12.647955   0.000000
      5         14.458403   0.000000

  0.4800000E+00  0.1200000E+00  0.1238535E-14  0.1536000E-02
      1          0.689584   1.000000
      2          3.368888   1.000000
      3         12.056780   0.000000
      4         12.779180   0.000000
      5         14.578359   0.000000

 -0.4800000E+00  0.1200000E+00  0.1244785E-14  0.1536000E-02
      1          1.466804   1.000000
      2          2.460228   1.000000
      3         11.736549   0.000000
      4         12.971386   0.000000
      5         14.776870   0.000000

 -0.4400000E+00  0.1200000E+00  0.1273934E-14  0.1536000E-02
      1          1.466835   1.000000
      2          2.460039   1.000000
      3         11.474296   0.000000
      4         13.223161   0.000000
      5         15.048344   0.000000

 -0.4000000E+00  0.1200000E+00  0.1285400E-14  0.1536000E-02
      1          0.689526   1.000000
      2          3.368419   1.000000
      3         11.273481   0.000000
      4         13.532260   0.000000
      5         15.389129   0.000000

 -0.3600000E+00  0.1200000E+00  0.1269110E-14  0.1536000E-02
      1         -0.049189   1.000000
      2          4.368985   1.000000
      3         11.136081   0.000000
      4         13.895181   0.000000
      5         15.796312   0.000000

 -0.3200000E+00  0.1200000E+00  0.1261662E-14  0.1536000E-02
      1         -0.724122   1.000000
      2          5.435589   0.549106
      3         11.063538   0.000000
      4         14.306322   0.000000
      5         16.266699   0.000000

 -0.2800000E+00  0.1200000E+00  0.1280739E-14  0.1536000E-02
      1         -1.331440   1.000000
      2          6.562666  -0.001658
      3         11.056806   0.000000
      4         14.756588   0.000000
      5         16.796072   0.000000

 -0.2400000E+00  0.1200000E+00  0.1222816E-14  0.1536000E-02
      1         -1.869579   1.000000
      2          7.745651   0.000000
      3         11.117143   0.000000
      4         15.231291   0.000000
      5         17.397546   0.000000

 -0.2000000E+00  0.1200000E+00  0.1265227E-14  0.1536000E-02
      1         -2.337564   1.000000
      2          8.977077   0.000000
      3         11.247385   0.000000
      4         15.707573   0.000000
      5         17.604421   0.000000

 -0.1600000E+00  0.1200000E+00  0.1276796E-14  0.1536000E-02
      1         -2.734656   1.000000
      2         10.237756   0.000000
      3         11.459976   0.000000
      4         16.150690   0.000000
      5         17.778906   0.000000

 -0.1200000E+00  0.1200000E+00  0.1277171E-14  0.7680000E-03
      1         -3.060301   1.000000
      2         11.376681   0.000000
      3         11.893522   0.000000
      4         16.475861   0.000000
      5         17.604702   0.000000

  0.1600000E+00  0.1600000E+00  0.1256797E-14  0.3840000E-03
      1         -3.156760   1.000000
      2         13.093514   0.000000
      3         13.093519   0.000000
      4         14.063278   0.000000
      5         14.767560   0.000000

  0.2000000E+00  0.1600000E+00  0.1244052E-14  0.1536000E-02
      1         -2.927328   1.000000
      2         12.152481   0.000000
      3         12.763591   0.000000
      4         13.997878   0.000000
      5         14.590726   0.000000

  0.2400000E+00  0.1600000E+00  0.1263128E-14  0.1536000E-02
      1         -2.625942   1.000000
      2         10.884810   0.000000
      3         12.496614   0.000000
      4         13.753407   0.000000
      5         14.573105   0.000000

  0.2800000E+00  0.1600000E+00  0.1288472E-14  0.1536000E-02
      1         -2.253048   1.000000
      2          9.606442   0.000000
      3         12.293047   0.000000
      4         13.365157   0.000000
      5         14.296522   0.000000

  0.3200000E+00  0.1600000E+00  0.1248232E-14  0.1536000E-02
      1         -1.809141   1.000000
      2          8.360675   0.000000
      3         12.153105   0.000000
      4         12.886403   0.000000
      5         14.041123   0.000000

  0.3600000E+00  0.1600000E+00  0.1255892E-14  0.1536000E-02
      1         -1.294907   1.000000
      2          7.161877   0.000000
      3         12.076707   0.000000
      4         12.368489   0.000000
      5         13.898171   0.000000

  0.4000000E+00  0.1600000E+00  0.1278775E-14  0.1536000E-02
      1         -0.711214   1.000000
      2          6.017239  -0.023632
      3         11.862976   0.000000
      4         12.063821   0.000000
      5         13.853662   0.000000

  0.4400000E+00  0.1600000E+00  0.1266290E-14  0.1536000E-02
      1         -0.059352   1.000000
      2          4.931496   1.032745
      3         11.397123   0.000000
      4         12.114228   0.000000
      5         13.892979   0.000000

  0.4800000E+00  0.1600000E+00  0.1218440E-14  0.1536000E-02
      1          0.658093   1.000000
      2          3.909196   1.000000
      3         10.983734   0.000000
      4         12.227614   0.000000
      5         14.008860   0.000000

 -0.4800000E+00  0.1600000E+00  0.1263862E-14  0.1536000E-02
      1          1.430440   1.000000
      2          2.962123   1.000000
      3         10.628946   0.000000
      4         12.403416   0.000000
      5         14.197267   0.000000

 -0.4400000E+00  0.1600000E+00  0.1261450E-14  0.1536000E-02
      1          1.906808   1.000000
      2          2.441709   1.000000
      3         10.336475   0.000000
      4         12.641011   0.000000
      5         14.456069   0.000000

 -0.4000000E+00  0.1600000E+00  0.1290599E-14  0.1536000E-02
      1          1.168831   1.000000
      2          3.266400   1.000000
      3         10.108349   0.000000
      4         12.939169   0.000000
      5         14.783319   0.000000

 -0.3600000E+00  0.1600000E+00  0.1238943E-14  0.1536000E-02
      1          0.411740   1.000000
      2          4.240349   1.000000
      3          9.946067   0.000000
      4         13.296259   0.000000
      5         15.176944   0.000000

 -0.3200000E+00  0.1600000E+00  0.1258020E-14  0.1536000E-02
      1         -0.284402   1.000000
      2          5.282320   0.734154
      3          9.850892   0.000000
      4         13.709538   0.000000
      5         15.634329   0.000000

 -0.2800000E+00  0.1600000E+00  0.1264449E-14  0.1536000E-02
      1         -0.913789   1.000000
      2          6.383847  -0.030272
      3          9.824729   0.000000
      4         14.174699   0.000000
      5         16.152737   0.000000

 -0.2400000E+00  0.1600000E+00  0.1229246E-14  0.1536000E-02
      1         -1.474449   1.000000
      2          7.537072   0.000000
      3          9.871732   0.000000
      4         14.684046   0.000000
      5         16.726919   0.000000

 -0.2000000E+00  0.1600000E+00  0.1262200E-14  0.1536000E-02
      1         -1.965315   1.000000
      2          8.719905   0.000000
      3         10.009304   0.000000
      4         15.222489   0.000000
      5         17.348151   0.000000

 -0.1600000E+00  0.1600000E+00  0.1257586E-14  0.7680000E-03
      1         -2.385587   1.000000
      2          9.768195   0.000000
      3         10.394727   0.000000
      4         15.752983   0.000000
      5         18.258524   0.000000

  0.2000000E+00  0.2000000E+00  0.1245184E-14  0.3840000E-03
      1         -2.722243   1.000000
      2         12.412514   0.000000
      3         12.412519   0.000000
      4         13.333021   0.000000
      5         13.845783   0.000000

  0.2400000E+00  0.2000000E+00  0.1268066E-14  0.1536000E-02
      1         -2.445229   1.000000
      2         11.497998   0.000000
      3         12.124425   0.000000
      4         13.201656   0.000000
      5         13.533110   0.000000

  0.2800000E+00  0.2000000E+00  0.1328776E-14  0.1536000E-02
      1         -2.096659   1.000000
      2         10.264079   0.000000
      3         11.899789   0.000000
      4         12.652197   0.000000
      5         13.563561   0.000000

  0.3200000E+00  0.2000000E+00  0.1253170E-14  0.1536000E-02
      1         -1.677001   1.000000
      2          9.023529   0.000000
      3         11.738846   0.000000
      4         12.043738   0.000000
      5         13.463720   0.000000

  0.3600000E+00  0.2000000E+00  0.1268441E-14  0.1536000E-02
      1         -1.186902   1.000000
      2          7.817540   0.000000
      3         11.446919   0.000000
      4         11.641712   0.000000
      5         13.373873   0.000000

  0.4000000E+00  0.2000000E+00  0.1283713E-14  0.1536000E-02
      1         -0.627125   1.000000
      2          6.660159   0.000000
      3         10.889152   0.000000
      4         11.608337   0.000000
      5         13.341372   0.000000

  0.4400000E+00  0.2000000E+00  0.1271228E-14  0.1536000E-02
      1          0.001210   1.000000
      2          5.558249   0.395910
      3         10.383401   0.000000
      4         11.638628   0.000000
      5         13.376008   0.000000

  0.4800000E+00  0.2000000E+00  0.1251133E-14  0.1536000E-02
      1          0.696204   1.000000
      2          4.516911   1.006855
      3          9.936467   0.000000
      4         11.732370   0.000000
      5         13.479993   0.000000

 -0.4800000E+00  0.2000000E+00  0.1261189E-14  0.1536000E-02
      1          1.452263   1.000000
      2          3.543454   1.000000
      3          9.551876   0.000000
      4         11.889293   0.000000
      5         13.653327   0.000000

 -0.4400000E+00  0.2000000E+00  0.1268849E-14  0.1536000E-02
      1          2.193157   1.000000
      2          2.714864   1.000000
      3          9.232015   0.000000
      4         12.108916   0.000000
      5         13.895599   0.000000

 -0.4000000E+00  0.2000000E+00  0.1291732E-14  0.1536000E-02
      1          1.714027   1.000000
      2          3.236181   1.000000
      3          8.978561   0.000000
      4         12.390586   0.000000
      5         14.205920   0.000000

 -0.3600000E+00  0.2000000E+00  0.1262795E-14  0.1536000E-02
      1          0.941727   1.000000
      2          4.179677   1.000000
      3          8.793039   0.000000
      4         12.733248   0.000000
      5         14.582776   0.000000

 -0.3200000E+00  0.2000000E+00  0.1259152E-14  0.1536000E-02
      1          0.225060   1.000000
      2          5.194454   0.837571
      3          8.677595   0.000000
      4         13.135292   0.000000
      5         15.024172   0.000000

 -0.2800000E+00  0.2000000E+00  0.1255509E-14  0.1536000E-02
      1         -0.425909   1.000000
      2          6.264574  -0.049083
      3          8.637441   0.000000
      4         13.593917   0.000000
      5         15.527713   0.000000

 -0.2400000E+00  0.2000000E+00  0.1237009E-14  0.1536000E-02
      1         -1.008741   1.000000
      2          7.365442   0.000000
      3          8.692935   0.000000
      4         14.104216   0.000000
      5         16.088898   0.000000

 -0.2000000E+00  0.2000000E+00  0.1267259E-14  0.7680000E-03
      1         -1.522153   1.000000
      2          8.324318   0.000000
      3          9.011996   0.000000
      4         14.655941   0.000000
      5         16.700208   0.000000

  0.2400000E+00  0.2400000E+00  0.1273265E-14  0.3840000E-03
      1         -2.192617   1.000000
      2         11.815131   0.000000
      3         11.815136   0.000000
      4         12.561411   0.000000
      5         12.682376   0.000000

  0.2800000E+00  0.2400000E+00  0.1245559E-14  0.1536000E-02
      1         -1.868461   1.000000
      2         10.922340   0.000000
      3         11.569237   0.000000
      4         11.874762   0.000000
      5         12.814070   0.000000

  0.3200000E+00  0.2400000E+00  0.1268441E-14  0.1536000E-02
      1         -1.473200   1.000000
      2          9.725118   0.000000
      3         11.194523   0.000000
      4         11.387114   0.000000
      5         12.926861   0.000000

  0.3600000E+00  0.2400000E+00  0.1248346E-14  0.1536000E-02
      1         -1.007422   1.000000
      2          8.525293   0.000000
      3         10.547512   0.000000
      4         11.268913   0.000000
      5         12.905886   0.000000

  0.4000000E+00  0.2400000E+00  0.1298984E-14  0.1536000E-02
      1         -0.471833   1.000000
      2          7.361534   0.000000
      3          9.950343   0.000000
      4         11.214653   0.000000
      5         12.886155   0.000000

  0.4400000E+00  0.2400000E+00  0.1215766E-14  0.1536000E-02
      1          0.132557   1.000000
      2          6.247143  -0.067930
      3          9.411086   0.000000
      4         11.224240   0.000000
      5         12.914377   0.000000

  0.4800000E+00  0.2400000E+00  0.1238649E-14  0.1536000E-02
      1          0.804237   1.000000
      2          5.189502   0.856953
      3          8.933979   0.000000
      4         11.297570   0.000000
      5         13.004546   0.000000

 -0.4800000E+00  0.2400000E+00  0.1294143E-14  0.1536000E-02
      1          1.539774   1.000000
      2          4.194890   1.000000