    1    1    1    1
  0.1660088E+02  0.2863400E-09  0.2863400E-09  0.2863400E-09  0.5000000E-15
   1.0000000000000000E-004
  CAR 
 Al                                      
      3     16      5

  0.1262379E-14  0.1262379E-14  0.1262379E-14  0.4629630E-02
      1         -3.156330   1.000000
      2         20.521454   0.000000
      3         20.521454   0.000000
      4         20.521454   0.000000
      5         21.966219   0.000000

  0.1666667E+00  0.1276756E-14  0.1258510E-14  0.3703704E-01
      1         -2.405950   1.000000
      2         14.554173   0.000000
      3         19.241404   0.000000
      4         19.241405   0.000000
      5         22.462522   0.000000

  0.3333333E+00  0.1276756E-14  0.1234681E-14  0.3703704E-01
      1         -0.178065   1.000000
      2          8.429424   0.359409
      3         18.659936   0.000000
      4         18.659936   0.000000
      5         21.245940   0.000000

  0.5000000E+00  0.1276756E-14  0.1246841E-14  0.1851852E-01
      1          3.367546   1.000000
      2          3.564129   1.012781
      3         19.279889   0.000000
      4         19.279895   0.000000
      5         19.369012   0.000000

  0.1666667E+00  0.1666667E+00  0.1262558E-14  0.2777778E-01
      1         -2.156666   1.000000
      2         16.911011   0.000000
      3         16.911011   0.000000
      4         17.083008   0.000000
      5         20.147987   0.000000

  0.3333333E+00  0.1666667E+00  0.1219086E-14  0.1111111E+00
      1         -0.424134   1.000000
      2         10.926208  -0.052504
      3         15.855057   0.000000
      4         16.588245   0.000000
      5         17.499376   0.000000

  0.5000000E+00  0.1666667E+00  0.1228901E-14  0.1111111E+00
      1          2.736323   1.000000
      2          5.610130   1.020192
      3         14.129580   0.000000
      4         16.081349   0.000000
      5         17.860443   0.000000

 -0.3333333E+00  0.1666667E+00  0.1253955E-14  0.1111111E+00
      1          1.530805   1.000000
      2          7.235418   0.742045
      3         13.020860   0.000000
      4         17.591146   0.000000
      5         19.516442   0.000000

 -0.1666667E+00  0.1666667E+00  0.1257229E-14  0.5555556E-01
      1         -1.164001   1.000000
      2         12.408357  -0.052355
      3         13.807046   0.000000
      4         20.342272   0.000000
      5         22.368172   0.000000

  0.3333333E+00  0.3333333E+00  0.1219592E-14  0.2777778E-01
      1          0.798730   1.000000
      2         12.299037  -0.039601
      3         14.179663   0.000000
      4         14.354459   0.000000
      5         14.354460   0.000000

  0.5000000E+00  0.3333333E+00  0.1229407E-14  0.1111111E+00
      1          3.437134   1.000000
      2          8.968592   0.226476
      3          9.428786   0.000000
      4         14.144707   0.000000
      5         15.651408   0.000000

 -0.3333333E+00  0.3333333E+00  0.1255341E-14  0.5555556E-01
      1          4.643035   1.000000
      2          6.867120   0.998020
      3          8.319594   0.000000
      4         15.222042   0.000000
      5         16.984415   0.000000

  0.5000000E+00  0.5000000E+00  0.1151265E-14  0.1388889E-01
      1          5.026888   1.000000
      2          6.336277   1.014373
      3         13.192764   0.000000
      4         13.501629   0.000000
      5         13.501629   0.000000

  0.5000000E+00  0.3333333E+00  0.1666667E+00  0.1111111E+00
      1          1.771007   1.000000
      2          9.637110   0.163978
      3         11.085969   0.000000
      4         13.284102   0.000000
      5         20.711494   0.000000

 -0.3333333E+00  0.3333333E+00  0.1666667E+00  0.1111111E+00
      1          5.215683   1.000000
      2          5.470807   1.081650
      3         10.932933   0.000000
      4         11.486275   0.000000
      5         21.903160   0.000000

 -0.3333333E+00  0.5000000E+00  0.1666667E+00  0.5555556E-01
      1          5.946242   1.000000
      2          7.285475   0.879669
      3          8.713038   0.000000
      4         10.266356   0.000000
      5         19.825062   0.000000
