       N       E                     dE             d eps       ncg     rms          rms(c)
DAV:   1    -0.334801775058E+01   -0.33480E+01   -0.12160E+02  8582   0.224E+01    0.778E+00
DAV:   2    -0.373710181155E+01   -0.38908E+00   -0.32797E+00  7077   0.743E+00    0.582E+00
DAV:   3    -0.374539695132E+01   -0.82951E-02   -0.84811E-02  7072   0.101E+00    0.331E+00
DAV:   4    -0.374527717587E+01    0.11978E-03   -0.59373E-04  5221   0.140E-01    0.750E-02
DAV:   5    -0.374527675363E+01    0.42224E-06   -0.70488E-06  3896   0.177E-02
   1 F= -.37452768E+01 E0= -.37452768E+01  d E =0.000000E+00
