       N       E                     dE             d eps       ncg     rms          rms(c)
DAV:   1    -0.377967581814E+01   -0.37797E+01   -0.22616E-04   153   0.478E-01    0.586E-04
DAV:   2    -0.377967583521E+01   -0.17067E-07   -0.18462E-09    83   0.949E-04
   1 F= -.37796758E+01 E0= -.37796758E+01  d E =0.000000E+00
