 vasp.6.4.2 20Jul23 (build Oct 18 2023 12:49:41) complex                         
 executed on             LinuxGNU date 2025.04.11  08:06:06
 running    2 mpi-ranks, with    1 threads/rank, on    1 nodes
 distrk:  each k-point on    2 cores,    1 groups
 distr:  one band on NCORE=   2 cores,    1 groups


--------------------------------------------------------------------------------------------------------


 INCAR:
   SYSTEM = Al atom
   ISMEAR = -5
   ENCUT = 400
   LCHARG = .FALSE.
   NCORE = 2
   NSIM = 1

 POTCAR:    PAW_PBE Al 04Jan2001                  
 POTCAR:    PAW_PBE Al 04Jan2001                  
   SHA256 =  17880443556af62b473fe41b62a467bd001ad55d2cabe504a3f22e34d4e9db96 Al/POTCAR             
   COPYR  = (c) Copyright 04Jan2001 Georg Kresse                                                    
   COPYR  = This file is part of the software VASP. Any use, copying, and all other rights are regul
   COPYR  = If you do not have a valid VASP license, you may not use, copy or distribute this file. 
   VRHFIN =Al: s2p1                                                                                 
   LEXCH  = PE                                                                                      
   EATOM  =    53.5387 eV,    3.9350 Ry                                                             
                                                                                                    
   TITEL  = PAW_PBE Al 04Jan2001                                                                    
   LULTRA =        F    use ultrasoft PP ?                                                          
   IUNSCR =        1    unscreen: 0-lin 1-nonlin 2-no                                               
   RPACOR =    1.500    partial core radius                                                         
   POMASS =   26.981; ZVAL   =    3.000    mass and valenz                                          
   RCORE  =    1.900    outmost cutoff radius                                                       
   RWIGS  =    2.650; RWIGS  =    1.402    wigner-seitz radius (au A)                               
   ENMAX  =  240.300; ENMIN  =  180.225 eV                                                          
   ICORE  =        2    local potential                                                             
   LCOR   =        T    correct aug charges                                                         
   LPAW   =        T    paw PP                                                                      
   EAUG   =  291.052                                                                                
   DEXC   =    0.000                                                                                
   RMAX   =    1.939    core radius for proj-oper                                                   
   RAUG   =    1.300    factor for augmentation sphere                                              
   RDEP   =    1.966    radius for radial grids                                                     
   RDEPT  =    1.856    core radius for aug-charge                                                  
                                                                                                    
   Atomic configuration                                                                             
    6 entries                                                                                       
     n  l   j            E        occ.                                                              
     1  0  0.50     -1511.1048   2.0000                                                             
     2  0  0.50      -108.1629   2.0000                                                             
     2  1  1.50       -69.6402   6.0000                                                             
     3  0  0.50        -7.7528   2.0000                                                             
     3  1  1.50        -2.7121   1.0000                                                             
     3  2  2.50        -2.7212   0.0000                                                             
   Description                                                                                      
     l       E           TYP  RCUT    TYP  RCUT                                                     
     0     -7.7528455     23  1.900                                                                 
     0     -3.3096929     23  1.900                                                                 
     1     -2.7120682     23  1.900                                                                 
     1     13.6058260     23  1.900                                                                 
     2     -2.7211652      7  1.900                                                                 
  local pseudopotential read in
  partial core-charges read in
  partial kinetic energy density read in
  atomic valenz-charges read in
  non local Contribution for L=           0  read in
    real space projection operators read in
  non local Contribution for L=           0  read in
    real space projection operators read in
  non local Contribution for L=           1  read in
    real space projection operators read in
  non local Contribution for L=           1  read in
    real space projection operators read in
    PAW grid and wavefunctions read in

   number of l-projection  operators is LMAX  =           4
   number of lm-projection operators is LMMAX =           8

  PAW_PBE Al 04Jan2001                  :
 energy of atom  1       EATOM=  -53.5387
 kinetic energy error for atom=    0.0005 (will be added to EATOM!!)


 POSCAR: Al
  positions in cartesian coordinates
  No initial velocities read in
 exchange correlation table for  LEXCH =        8
   RHO(1)=    0.500       N(1)  =     2000
   RHO(2)=  100.500       N(2)  =     4000



--------------------------------------------------------------------------------------------------------


 ion  position               nearest neighbor table
   1  0.000  0.000  0.000-

  LATTYP: Found a face centered cubic cell.
 ALAT       =    16.4003094137
  
  Lattice vectors:
  
 A1 = (  11.5967700000,   0.0000000000,   0.0000000000)
 A2 = (   5.7983850000,  10.0430974218,   0.0000000000)
 A3 = (   5.7983850000,   3.3476991406,   9.4687230548)


Analysis of symmetry for initial positions (statically):
=====================================================================
 Subroutine PRICEL returns:
 Original cell was already a primitive cell.
 

 Routine SETGRP: Setting up the symmetry group for a 
 face centered cubic supercell.


 Subroutine GETGRP returns: Found 48 space group operations
 (whereof 48 operations were pure point group operations)
 out of a pool of 48 trial point group operations.


The static configuration has the point symmetry O_h .


Analysis of symmetry for dynamics (positions and initial velocities):
=====================================================================
 Subroutine PRICEL returns:
 Original cell was already a primitive cell.
 

 Routine SETGRP: Setting up the symmetry group for a 
 face centered cubic supercell.


 Subroutine GETGRP returns: Found 48 space group operations
 (whereof 48 operations were pure point group operations)
 out of a pool of 48 trial point group operations.


The dynamic configuration has the point symmetry O_h .


 Subroutine INISYM returns: Found 48 space group operations
 (whereof 48 operations are pure point group operations),
 and found     1 'primitive' translations


----------------------------------------------------------------------------------------

                                     Primitive cell                                     

  volume of cell :    1102.7984

  direct lattice vectors                    reciprocal lattice vectors
    11.596770000  0.000000000  0.000000000     0.086230907 -0.049785438 -0.035203621
     5.798385000 10.043097422  0.000000000     0.000000000  0.099570875 -0.035203621
     5.798385000  3.347699141  9.468723055     0.000000000  0.000000000  0.105610862

  length of vectors
    11.596770000 11.596770000 11.596770000     0.105610862  0.105610862  0.105610862

  position of ions in fractional coordinates (direct lattice)
     0.000000000  0.000000000  0.000000000

  ion indices of the primitive-cell ions
   primitive index   ion index
                 1           1

----------------------------------------------------------------------------------------



 KPOINTS: Al Atom   # System label                

Automatic generation of k-mesh.
 Grid dimensions read from file:
 generate k-points for:   25   25   25

 Generating k-lattice:

  Cartesian coordinates                     Fractional coordinates (reciprocal lattice)
     0.003449236 -0.001991418 -0.001408145     0.040000000 -0.000000000 -0.000000000
     0.000000000  0.003982835 -0.001408145     0.000000000  0.040000000 -0.000000000
     0.000000000  0.000000000  0.004224434     0.000000000  0.000000000  0.040000000

  Length of vectors
     0.004224434  0.004224434  0.004224434

  Shift w.r.t. Gamma in fractional coordinates (k-lattice)
     0.000000000  0.000000000  0.000000000

 TETIRR: Found   2119 inequivalent tetrahedra from    93750
 
 Subroutine IBZKPT returns following result:
 ===========================================
 
 Found    455 irreducible k-points:
 
 Following reciprocal coordinates:
            Coordinates               Weight
  0.000000  0.000000  0.000000      1.000000
  0.040000  0.000000  0.000000      8.000000
  0.080000  0.000000  0.000000      8.000000
  0.120000  0.000000  0.000000      8.000000
  0.160000  0.000000  0.000000      8.000000
  0.200000  0.000000  0.000000      8.000000
  0.240000  0.000000  0.000000      8.000000
  0.280000  0.000000  0.000000      8.000000
  0.320000  0.000000  0.000000      8.000000
  0.360000  0.000000  0.000000      8.000000
  0.400000  0.000000  0.000000      8.000000
  0.440000  0.000000  0.000000      8.000000
  0.480000  0.000000  0.000000      8.000000
  0.040000  0.040000  0.000000      6.000000
  0.080000  0.040000  0.000000     24.000000
  0.120000  0.040000  0.000000     24.000000
  0.160000  0.040000  0.000000     24.000000
  0.200000  0.040000  0.000000     24.000000
  0.240000  0.040000  0.000000     24.000000
  0.280000  0.040000  0.000000     24.000000
  0.320000  0.040000  0.000000     24.000000
  0.360000  0.040000  0.000000     24.000000
  0.400000  0.040000  0.000000     24.000000
  0.440000  0.040000  0.000000     24.000000
  0.480000  0.040000  0.000000     24.000000
 -0.480000  0.040000  0.000000     24.000000
 -0.440000  0.040000  0.000000     24.000000
 -0.400000  0.040000  0.000000     24.000000
 -0.360000  0.040000  0.000000     24.000000
 -0.320000  0.040000  0.000000     24.000000
 -0.280000  0.040000  0.000000     24.000000
 -0.240000  0.040000  0.000000     24.000000
 -0.200000  0.040000  0.000000     24.000000
 -0.160000  0.040000  0.000000     24.000000
 -0.120000  0.040000  0.000000     24.000000
 -0.080000  0.040000  0.000000     24.000000
 -0.040000  0.040000  0.000000     12.000000
  0.080000  0.080000  0.000000      6.000000
  0.120000  0.080000  0.000000     24.000000
  0.160000  0.080000  0.000000     24.000000
  0.200000  0.080000  0.000000     24.000000
  0.240000  0.080000  0.000000     24.000000
  0.280000  0.080000  0.000000     24.000000
  0.320000  0.080000  0.000000     24.000000
  0.360000  0.080000  0.000000     24.000000
  0.400000  0.080000  0.000000     24.000000
  0.440000  0.080000  0.000000     24.000000
  0.480000  0.080000  0.000000     24.000000
 -0.480000  0.080000  0.000000     24.000000
 -0.440000  0.080000  0.000000     24.000000
 -0.400000  0.080000  0.000000     24.000000
 -0.360000  0.080000  0.000000     24.000000
 -0.320000  0.080000  0.000000     24.000000
 -0.280000  0.080000  0.000000     24.000000
 -0.240000  0.080000  0.000000     24.000000
 -0.200000  0.080000  0.000000     24.000000
 -0.160000  0.080000  0.000000     24.000000
 -0.120000  0.080000  0.000000     24.000000
 -0.080000  0.080000  0.000000     12.000000
  0.120000  0.120000  0.000000      6.000000
  0.160000  0.120000  0.000000     24.000000
  0.200000  0.120000  0.000000     24.000000
  0.240000  0.120000  0.000000     24.000000
  0.280000  0.120000  0.000000     24.000000
  0.320000  0.120000  0.000000     24.000000
  0.360000  0.120000  0.000000     24.000000
  0.400000  0.120000  0.000000     24.000000
  0.440000  0.120000  0.000000     24.000000
  0.480000  0.120000  0.000000     24.000000
 -0.480000  0.120000  0.000000     24.000000
 -0.440000  0.120000  0.000000     24.000000
 -0.400000  0.120000  0.000000     24.000000
 -0.360000  0.120000  0.000000     24.000000
 -0.320000  0.120000  0.000000     24.000000
 -0.280000  0.120000  0.000000     24.000000
 -0.240000  0.120000  0.000000     24.000000
 -0.200000  0.120000  0.000000     24.000000
 -0.160000  0.120000  0.000000     24.000000
 -0.120000  0.120000  0.000000     12.000000
  0.160000  0.160000  0.000000      6.000000
  0.200000  0.160000  0.000000     24.000000
  0.240000  0.160000  0.000000     24.000000
  0.280000  0.160000  0.000000     24.000000
  0.320000  0.160000  0.000000     24.000000
  0.360000  0.160000  0.000000     24.000000
  0.400000  0.160000  0.000000     24.000000
  0.440000  0.160000  0.000000     24.000000
  0.480000  0.160000  0.000000     24.000000
 -0.480000  0.160000  0.000000     24.000000
 -0.440000  0.160000  0.000000     24.000000
 -0.400000  0.160000  0.000000     24.000000
 -0.360000  0.160000  0.000000     24.000000
 -0.320000  0.160000  0.000000     24.000000
 -0.280000  0.160000  0.000000     24.000000
 -0.240000  0.160000  0.000000     24.000000
 -0.200000  0.160000  0.000000     24.000000
 -0.160000  0.160000  0.000000     12.000000
  0.200000  0.200000  0.000000      6.000000
  0.240000  0.200000  0.000000     24.000000
  0.280000  0.200000  0.000000     24.000000
  0.320000  0.200000  0.000000     24.000000
  0.360000  0.200000  0.000000     24.000000
  0.400000  0.200000  0.000000     24.000000
  0.440000  0.200000  0.000000     24.000000
  0.480000  0.200000  0.000000     24.000000
 -0.480000  0.200000  0.000000     24.000000
 -0.440000  0.200000  0.000000     24.000000
 -0.400000  0.200000  0.000000     24.000000
 -0.360000  0.200000  0.000000     24.000000
 -0.320000  0.200000  0.000000     24.000000
 -0.280000  0.200000  0.000000     24.000000
 -0.240000  0.200000  0.000000     24.000000
 -0.200000  0.200000  0.000000     12.000000
  0.240000  0.240000  0.000000      6.000000
  0.280000  0.240000  0.000000     24.000000
  0.320000  0.240000  0.000000     24.000000
  0.360000  0.240000  0.000000     24.000000
  0.400000  0.240000  0.000000     24.000000
  0.440000  0.240000  0.000000     24.000000
  0.480000  0.240000  0.000000     24.000000
 -0.480000  0.240000  0.000000     24.000000
 -0.440000  0.240000  0.000000     24.000000
 -0.400000  0.240000  0.000000     24.000000
 -0.360000  0.240000  0.000000     24.000000
 -0.320000  0.240000  0.000000     24.000000
 -0.280000  0.240000  0.000000     24.000000
 -0.240000  0.240000  0.000000     12.000000
  0.280000  0.280000  0.000000      6.000000
  0.320000  0.280000  0.000000     24.000000
  0.360000  0.280000  0.000000     24.000000
  0.400000  0.280000  0.000000     24.000000
  0.440000  0.280000  0.000000     24.000000
  0.480000  0.280000  0.000000     24.000000
 -0.480000  0.280000  0.000000     24.000000
 -0.440000  0.280000  0.000000     24.000000
 -0.400000  0.280000  0.000000     24.000000
 -0.360000  0.280000  0.000000     24.000000
 -0.320000  0.280000  0.000000     24.000000
 -0.280000  0.280000  0.000000     12.000000
  0.320000  0.320000  0.000000      6.000000
  0.360000  0.320000  0.000000     24.000000
  0.400000  0.320000  0.000000     24.000000
  0.440000  0.320000  0.000000     24.000000
  0.480000  0.320000  0.000000     24.000000
 -0.480000  0.320000  0.000000     24.000000
 -0.440000  0.320000  0.000000     24.000000
 -0.400000  0.320000  0.000000     24.000000
 -0.360000  0.320000  0.000000     24.000000
 -0.320000  0.320000  0.000000     12.000000
  0.360000  0.360000  0.000000      6.000000
  0.400000  0.360000  0.000000     24.000000
  0.440000  0.360000  0.000000     24.000000
  0.480000  0.360000  0.000000     24.000000
 -0.480000  0.360000  0.000000     24.000000
 -0.440000  0.360000  0.000000     24.000000
 -0.400000  0.360000  0.000000     24.000000
 -0.360000  0.360000  0.000000     12.000000
  0.400000  0.400000  0.000000      6.000000
  0.440000  0.400000  0.000000     24.000000
  0.480000  0.400000  0.000000     24.000000
 -0.480000  0.400000  0.000000     24.000000
 -0.440000  0.400000  0.000000     24.000000
 -0.400000  0.400000  0.000000     12.000000
  0.440000  0.440000  0.000000      6.000000
  0.480000  0.440000  0.000000     24.000000
 -0.480000  0.440000  0.000000     24.000000
 -0.440000  0.440000  0.000000     12.000000
  0.480000  0.480000  0.000000      6.000000
 -0.480000  0.480000  0.000000     12.000000
  0.120000  0.080000  0.040000     24.000000
  0.160000  0.080000  0.040000     48.000000
  0.200000  0.080000  0.040000     48.000000
  0.240000  0.080000  0.040000     48.000000
  0.280000  0.080000  0.040000     48.000000
  0.320000  0.080000  0.040000     48.000000
  0.360000  0.080000  0.040000     48.000000
  0.400000  0.080000  0.040000     48.000000
  0.440000  0.080000  0.040000     48.000000
  0.480000  0.080000  0.040000     48.000000
 -0.480000  0.080000  0.040000     48.000000
  0.160000  0.120000  0.040000     24.000000
  0.200000  0.120000  0.040000     48.000000
  0.240000  0.120000  0.040000     48.000000
  0.280000  0.120000  0.040000     48.000000
  0.320000  0.120000  0.040000     48.000000
  0.360000  0.120000  0.040000     48.000000
  0.400000  0.120000  0.040000     48.000000
  0.440000  0.120000  0.040000     48.000000
  0.480000  0.120000  0.040000     48.000000
 -0.480000  0.120000  0.040000     48.000000
 -0.440000  0.120000  0.040000     48.000000
 -0.400000  0.120000  0.040000     48.000000
 -0.360000  0.120000  0.040000     48.000000
 -0.320000  0.120000  0.040000     48.000000
 -0.280000  0.120000  0.040000     48.000000
 -0.240000  0.120000  0.040000     48.000000
 -0.200000  0.120000  0.040000     48.000000
 -0.160000  0.120000  0.040000     48.000000
 -0.120000  0.120000  0.040000     48.000000
 -0.080000  0.120000  0.040000     24.000000
  0.200000  0.160000  0.040000     24.000000
  0.240000  0.160000  0.040000     48.000000
  0.280000  0.160000  0.040000     48.000000
  0.320000  0.160000  0.040000     48.000000
  0.360000  0.160000  0.040000     48.000000
  0.400000  0.160000  0.040000     48.000000
  0.440000  0.160000  0.040000     48.000000
  0.480000  0.160000  0.040000     48.000000
 -0.480000  0.160000  0.040000     48.000000
 -0.440000  0.160000  0.040000     48.000000
 -0.400000  0.160000  0.040000     48.000000
 -0.360000  0.160000  0.040000     48.000000
 -0.320000  0.160000  0.040000     48.000000
 -0.280000  0.160000  0.040000     48.000000
 -0.240000  0.160000  0.040000     48.000000
 -0.200000  0.160000  0.040000     48.000000
 -0.160000  0.160000  0.040000     48.000000
 -0.120000  0.160000  0.040000     24.000000
  0.240000  0.200000  0.040000     24.000000
  0.280000  0.200000  0.040000     48.000000
  0.320000  0.200000  0.040000     48.000000
  0.360000  0.200000  0.040000     48.000000
  0.400000  0.200000  0.040000     48.000000
  0.440000  0.200000  0.040000     48.000000
  0.480000  0.200000  0.040000     48.000000
 -0.480000  0.200000  0.040000     48.000000
 -0.440000  0.200000  0.040000     48.000000
 -0.400000  0.200000  0.040000     48.000000
 -0.360000  0.200000  0.040000     48.000000
 -0.320000  0.200000  0.040000     48.000000
 -0.280000  0.200000  0.040000     48.000000
 -0.240000  0.200000  0.040000     48.000000
 -0.200000  0.200000  0.040000     48.000000
 -0.160000  0.200000  0.040000     24.000000
  0.280000  0.240000  0.040000     24.000000
  0.320000  0.240000  0.040000     48.000000
  0.360000  0.240000  0.040000     48.000000
  0.400000  0.240000  0.040000     48.000000
  0.440000  0.240000  0.040000     48.000000
  0.480000  0.240000  0.040000     48.000000
 -0.480000  0.240000  0.040000     48.000000
 -0.440000  0.240000  0.040000     48.000000
 -0.400000  0.240000  0.040000     48.000000
 -0.360000  0.240000  0.040000     48.000000
 -0.320000  0.240000  0.040000     48.000000
 -0.280000  0.240000  0.040000     48.000000
 -0.240000  0.240000  0.040000     48.000000
 -0.200000  0.240000  0.040000     24.000000
  0.320000  0.280000  0.040000     24.000000
  0.360000  0.280000  0.040000     48.000000
  0.400000  0.280000  0.040000     48.000000
  0.440000  0.280000  0.040000     48.000000
  0.480000  0.280000  0.040000     48.000000
 -0.480000  0.280000  0.040000     48.000000
 -0.440000  0.280000  0.040000     48.000000
 -0.400000  0.280000  0.040000     48.000000
 -0.360000  0.280000  0.040000     48.000000
 -0.320000  0.280000  0.040000     48.000000
 -0.280000  0.280000  0.040000     48.000000
 -0.240000  0.280000  0.040000     24.000000
  0.360000  0.320000  0.040000     24.000000
  0.400000  0.320000  0.040000     48.000000
  0.440000  0.320000  0.040000     48.000000
  0.480000  0.320000  0.040000     48.000000
 -0.480000  0.320000  0.040000     48.000000
 -0.440000  0.320000  0.040000     48.000000
 -0.400000  0.320000  0.040000     48.000000
 -0.360000  0.320000  0.040000     48.000000
 -0.320000  0.320000  0.040000     48.000000
 -0.280000  0.320000  0.040000     24.000000
  0.400000  0.360000  0.040000     24.000000
  0.440000  0.360000  0.040000     48.000000
  0.480000  0.360000  0.040000     48.000000
 -0.480000  0.360000  0.040000     48.000000
 -0.440000  0.360000  0.040000     48.000000
 -0.400000  0.360000  0.040000     48.000000
 -0.360000  0.360000  0.040000     48.000000
 -0.320000  0.360000  0.040000     24.000000
  0.440000  0.400000  0.040000     24.000000
  0.480000  0.400000  0.040000     48.000000
 -0.480000  0.400000  0.040000     48.000000
 -0.440000  0.400000  0.040000     48.000000
 -0.400000  0.400000  0.040000     48.000000
 -0.360000  0.400000  0.040000     24.000000
  0.480000  0.440000  0.040000     24.000000
 -0.480000  0.440000  0.040000     48.000000
 -0.440000  0.440000  0.040000     48.000000
 -0.400000  0.440000  0.040000     24.000000
 -0.480000  0.480000  0.040000     24.000000
 -0.440000  0.480000  0.040000     24.000000
  0.240000  0.160000  0.080000     24.000000
  0.280000  0.160000  0.080000     48.000000
  0.320000  0.160000  0.080000     48.000000
  0.360000  0.160000  0.080000     48.000000
  0.400000  0.160000  0.080000     48.000000
  0.440000  0.160000  0.080000     48.000000
  0.480000  0.160000  0.080000     48.000000
 -0.480000  0.160000  0.080000     48.000000
 -0.440000  0.160000  0.080000     48.000000
  0.280000  0.200000  0.080000     24.000000
  0.320000  0.200000  0.080000     48.000000
  0.360000  0.200000  0.080000     48.000000
  0.400000  0.200000  0.080000     48.000000
  0.440000  0.200000  0.080000     48.000000
  0.480000  0.200000  0.080000     48.000000
 -0.480000  0.200000  0.080000     48.000000
 -0.440000  0.200000  0.080000     48.000000
 -0.400000  0.200000  0.080000     48.000000
 -0.360000  0.200000  0.080000     48.000000
 -0.320000  0.200000  0.080000     48.000000
 -0.280000  0.200000  0.080000     48.000000
 -0.240000  0.200000  0.080000     48.000000
 -0.200000  0.200000  0.080000     48.000000
 -0.160000  0.200000  0.080000     48.000000
 -0.120000  0.200000  0.080000     24.000000
  0.320000  0.240000  0.080000     24.000000
  0.360000  0.240000  0.080000     48.000000
  0.400000  0.240000  0.080000     48.000000
  0.440000  0.240000  0.080000     48.000000
  0.480000  0.240000  0.080000     48.000000
 -0.480000  0.240000  0.080000     48.000000
 -0.440000  0.240000  0.080000     48.000000
 -0.400000  0.240000  0.080000     48.000000
 -0.360000  0.240000  0.080000     48.000000
 -0.320000  0.240000  0.080000     48.000000
 -0.280000  0.240000  0.080000     48.000000
 -0.240000  0.240000  0.080000     48.000000
 -0.200000  0.240000  0.080000     48.000000
 -0.160000  0.240000  0.080000     24.000000
  0.360000  0.280000  0.080000     24.000000
  0.400000  0.280000  0.080000     48.000000
  0.440000  0.280000  0.080000     48.000000
  0.480000  0.280000  0.080000     48.000000
 -0.480000  0.280000  0.080000     48.000000
 -0.440000  0.280000  0.080000     48.000000
 -0.400000  0.280000  0.080000     48.000000
 -0.360000  0.280000  0.080000     48.000000
 -0.320000  0.280000  0.080000     48.000000
 -0.280000  0.280000  0.080000     48.000000
 -0.240000  0.280000  0.080000     48.000000
 -0.200000  0.280000  0.080000     24.000000
  0.400000  0.320000  0.080000     24.000000
  0.440000  0.320000  0.080000     48.000000
  0.480000  0.320000  0.080000     48.000000
 -0.480000  0.320000  0.080000     48.000000
 -0.440000  0.320000  0.080000     48.000000
 -0.400000  0.320000  0.080000     48.000000
 -0.360000  0.320000  0.080000     48.000000
 -0.320000  0.320000  0.080000     48.000000
 -0.280000  0.320000  0.080000     48.000000
 -0.240000  0.320000  0.080000     24.000000
  0.440000  0.360000  0.080000     24.000000
  0.480000  0.360000  0.080000     48.000000
 -0.480000  0.360000  0.080000     48.000000
 -0.440000  0.360000  0.080000     48.000000
 -0.400000  0.360000  0.080000     48.000000
 -0.360000  0.360000  0.080000     48.000000
 -0.320000  0.360000  0.080000     48.000000
 -0.280000  0.360000  0.080000     24.000000
  0.480000  0.400000  0.080000     24.000000
 -0.480000  0.400000  0.080000     48.000000
 -0.440000  0.400000  0.080000     48.000000
 -0.400000  0.400000  0.080000     48.000000
 -0.360000  0.400000  0.080000     48.000000
 -0.320000  0.400000  0.080000     24.000000
 -0.480000  0.440000  0.080000     24.000000
 -0.440000  0.440000  0.080000     48.000000
 -0.400000  0.440000  0.080000     48.000000
 -0.360000  0.440000  0.080000     24.000000
 -0.440000  0.480000  0.080000     24.000000
 -0.400000  0.480000  0.080000     24.000000
  0.360000  0.240000  0.120000     24.000000
  0.400000  0.240000  0.120000     48.000000
  0.440000  0.240000  0.120000     48.000000
  0.480000  0.240000  0.120000     48.000000
 -0.480000  0.240000  0.120000     48.000000
 -0.440000  0.240000  0.120000     48.000000
 -0.400000  0.240000  0.120000     48.000000
  0.400000  0.280000  0.120000     24.000000
  0.440000  0.280000  0.120000     48.000000
  0.480000  0.280000  0.120000     48.000000
 -0.480000  0.280000  0.120000     48.000000
 -0.440000  0.280000  0.120000     48.000000
 -0.400000  0.280000  0.120000     48.000000
 -0.360000  0.280000  0.120000     48.000000
 -0.320000  0.280000  0.120000     48.000000
 -0.280000  0.280000  0.120000     48.000000
 -0.240000  0.280000  0.120000     48.000000
 -0.200000  0.280000  0.120000     48.000000
 -0.160000  0.280000  0.120000     24.000000
  0.440000  0.320000  0.120000     24.000000
  0.480000  0.320000  0.120000     48.000000
 -0.480000  0.320000  0.120000     48.000000
 -0.440000  0.320000  0.120000     48.000000
 -0.400000  0.320000  0.120000     48.000000
 -0.360000  0.320000  0.120000     48.000000
 -0.320000  0.320000  0.120000     48.000000
 -0.280000  0.320000  0.120000     48.000000
 -0.240000  0.320000  0.120000     48.000000
 -0.200000  0.320000  0.120000     24.000000
  0.480000  0.360000  0.120000     24.000000
 -0.480000  0.360000  0.120000     48.000000
 -0.440000  0.360000  0.120000     48.000000
 -0.400000  0.360000  0.120000     48.000000
 -0.360000  0.360000  0.120000     48.000000
 -0.320000  0.360000  0.120000     48.000000
 -0.280000  0.360000  0.120000     48.000000
 -0.240000  0.360000  0.120000     24.000000
 -0.480000  0.400000  0.120000     24.000000
 -0.440000  0.400000  0.120000     48.000000
 -0.400000  0.400000  0.120000     48.000000
 -0.360000  0.400000  0.120000     48.000000
 -0.320000  0.400000  0.120000     48.000000
 -0.280000  0.400000  0.120000     24.000000
 -0.440000  0.440000  0.120000     24.000000
 -0.400000  0.440000  0.120000     48.000000
 -0.360000  0.440000  0.120000     48.000000
 -0.320000  0.440000  0.120000     24.000000
 -0.400000  0.480000  0.120000     24.000000
 -0.360000  0.480000  0.120000     24.000000
  0.480000  0.320000  0.160000     24.000000
 -0.480000  0.320000  0.160000     48.000000
 -0.440000  0.320000  0.160000     48.000000
 -0.400000  0.320000  0.160000     48.000000
 -0.360000  0.320000  0.160000     48.000000
 -0.480000  0.360000  0.160000     24.000000
 -0.440000  0.360000  0.160000     48.000000
 -0.400000  0.360000  0.160000     48.000000
 -0.360000  0.360000  0.160000     48.000000
 -0.320000  0.360000  0.160000     48.000000
 -0.280000  0.360000  0.160000     48.000000
 -0.240000  0.360000  0.160000     48.000000
 -0.200000  0.360000  0.160000     24.000000
 -0.440000  0.400000  0.160000     24.000000
 -0.400000  0.400000  0.160000     48.000000
 -0.360000  0.400000  0.160000     48.000000
 -0.320000  0.400000  0.160000     48.000000
 -0.280000  0.400000  0.160000     48.000000
 -0.240000  0.400000  0.160000     24.000000
 -0.400000  0.440000  0.160000     24.000000
 -0.360000  0.440000  0.160000     48.000000
 -0.320000  0.440000  0.160000     48.000000
 -0.280000  0.440000  0.160000     24.000000
 -0.360000  0.480000  0.160000     24.000000
 -0.320000  0.480000  0.160000     24.000000
 -0.400000  0.400000  0.200000     24.000000
 -0.360000  0.400000  0.200000     48.000000
 -0.320000  0.400000  0.200000     48.000000
 -0.360000  0.440000  0.200000     24.000000
 -0.320000  0.440000  0.200000     48.000000
 -0.280000  0.440000  0.200000     48.000000
 -0.240000  0.440000  0.200000     24.000000
 -0.320000  0.480000  0.200000     24.000000
 -0.280000  0.480000  0.200000     24.000000
 -0.280000  0.480000  0.240000     24.000000
 
 Following cartesian coordinates:
            Coordinates               Weight
  0.000000  0.000000  0.000000      1.000000
  0.013969 -0.008065 -0.005703      8.000000
  0.027939 -0.016130 -0.011406      8.000000
  0.041908 -0.024196 -0.017109      8.000000
  0.055878 -0.032261 -0.022812      8.000000
  0.069847 -0.040326 -0.028515      8.000000
  0.083816 -0.048391 -0.034218      8.000000
  0.097786 -0.056457 -0.039921      8.000000
  0.111755 -0.064522 -0.045624      8.000000
  0.125725 -0.072587 -0.051327      8.000000
  0.139694 -0.080652 -0.057030      8.000000
  0.153663 -0.088718 -0.062733      8.000000
  0.167633 -0.096783 -0.068436      8.000000
  0.013969  0.008065 -0.011406      6.000000
  0.027939  0.000000 -0.017109     24.000000
  0.041908 -0.008065 -0.022812     24.000000
  0.055878 -0.016130 -0.028515     24.000000
  0.069847 -0.024196 -0.034218     24.000000
  0.083816 -0.032261 -0.039921     24.000000
  0.097786 -0.040326 -0.045624     24.000000
  0.111755 -0.048391 -0.051327     24.000000
  0.125725 -0.056457 -0.057030     24.000000
  0.139694 -0.064522 -0.062733     24.000000
  0.153663 -0.072587 -0.068436     24.000000
  0.167633 -0.080652 -0.074139     24.000000
 -0.167633  0.112913  0.062733     24.000000
 -0.153663  0.104848  0.057030     24.000000
 -0.139694  0.096783  0.051327     24.000000
 -0.125725  0.088718  0.045624     24.000000
 -0.111755  0.080652  0.039921     24.000000
 -0.097786  0.072587  0.034218     24.000000
 -0.083816  0.064522  0.028515     24.000000
 -0.069847  0.056457  0.022812     24.000000
 -0.055878  0.048391  0.017109     24.000000
 -0.041908  0.040326  0.011406     24.000000
 -0.027939  0.032261  0.005703     24.000000
 -0.013969  0.024196  0.000000     12.000000
  0.027939  0.016130 -0.022812      6.000000
  0.041908  0.008065 -0.028515     24.000000
  0.055878  0.000000 -0.034218     24.000000
  0.069847 -0.008065 -0.039921     24.000000
  0.083816 -0.016130 -0.045624     24.000000
  0.097786 -0.024196 -0.051327     24.000000
  0.111755 -0.032261 -0.057030     24.000000
  0.125725 -0.040326 -0.062733     24.000000
  0.139694 -0.048391 -0.068436     24.000000
  0.153663 -0.056457 -0.074139     24.000000
  0.167633 -0.064522 -0.079842     24.000000
 -0.167633  0.129044  0.057030     24.000000
 -0.153663  0.120979  0.051327     24.000000
 -0.139694  0.112913  0.045624     24.000000
 -0.125725  0.104848  0.039921     24.000000
 -0.111755  0.096783  0.034218     24.000000
 -0.097786  0.088718  0.028515     24.000000
 -0.083816  0.080652  0.022812     24.000000
 -0.069847  0.072587  0.017109     24.000000
 -0.055878  0.064522  0.011406     24.000000
 -0.041908  0.056457  0.005703     24.000000
 -0.027939  0.048391  0.000000     12.000000
  0.041908  0.024196 -0.034218      6.000000
  0.055878  0.016130 -0.039921     24.000000
  0.069847  0.008065 -0.045624     24.000000
  0.083816 -0.000000 -0.051327     24.000000
  0.097786 -0.008065 -0.057030     24.000000
  0.111755 -0.016130 -0.062733     24.000000
  0.125725 -0.024196 -0.068436     24.000000
  0.139694 -0.032261 -0.074139     24.000000
  0.153663 -0.040326 -0.079842     24.000000
  0.167633 -0.048391 -0.085545     24.000000
 -0.167633  0.145174  0.051327     24.000000
 -0.153663  0.137109  0.045624     24.000000
 -0.139694  0.129044  0.039921     24.000000
 -0.125725  0.120979  0.034218     24.000000
 -0.111755  0.112913  0.028515     24.000000
 -0.097786  0.104848  0.022812     24.000000
 -0.083816  0.096783  0.017109     24.000000
 -0.069847  0.088718  0.011406     24.000000
 -0.055878  0.080652  0.005703     24.000000
 -0.041908  0.072587  0.000000     12.000000
  0.055878  0.032261 -0.045624      6.000000
  0.069847  0.024196 -0.051327     24.000000
  0.083816  0.016130 -0.057030     24.000000
  0.097786  0.008065 -0.062733     24.000000
  0.111755 -0.000000 -0.068436     24.000000
  0.125725 -0.008065 -0.074139     24.000000
  0.139694 -0.016130 -0.079842     24.000000
  0.153663 -0.024196 -0.085545     24.000000
  0.167633 -0.032261 -0.091248     24.000000
 -0.167633  0.161305  0.045624     24.000000
 -0.153663  0.153240  0.039921     24.000000
 -0.139694  0.145174  0.034218     24.000000
 -0.125725  0.137109  0.028515     24.000000
 -0.111755  0.129044  0.022812     24.000000
 -0.097786  0.120979  0.017109     24.000000
 -0.083816  0.112913  0.011406     24.000000
 -0.069847  0.104848  0.005703     24.000000
 -0.055878  0.096783  0.000000     12.000000
  0.069847  0.040326 -0.057030      6.000000
  0.083816  0.032261 -0.062733     24.000000
  0.097786  0.024196 -0.068436     24.000000
  0.111755  0.016130 -0.074139     24.000000
  0.125725  0.008065 -0.079842     24.000000
  0.139694  0.000000 -0.085545     24.000000
  0.153663 -0.008065 -0.091248     24.000000
  0.167633 -0.016130 -0.096951     24.000000
 -0.167633  0.177435  0.039921     24.000000
 -0.153663  0.169370  0.034218     24.000000
 -0.139694  0.161305  0.028515     24.000000
 -0.125725  0.153240  0.022812     24.000000
 -0.111755  0.145174  0.017109     24.000000
 -0.097786  0.137109  0.011406     24.000000
 -0.083816  0.129044  0.005703     24.000000
 -0.069847  0.120979  0.000000     12.000000
  0.083816  0.048391 -0.068436      6.000000
  0.097786  0.040326 -0.074139     24.000000
  0.111755  0.032261 -0.079842     24.000000
  0.125725  0.024196 -0.085545     24.000000
  0.139694  0.016130 -0.091248     24.000000
  0.153663  0.008065 -0.096951     24.000000
  0.167633  0.000000 -0.102654     24.000000
 -0.167633  0.193566  0.034218     24.000000
 -0.153663  0.185501  0.028515     24.000000
 -0.139694  0.177435  0.022812     24.000000
 -0.125725  0.169370  0.017109     24.000000
 -0.111755  0.161305  0.011406     24.000000
 -0.097786  0.153240  0.005703     24.000000
 -0.083816  0.145174  0.000000     12.000000
  0.097786  0.056457 -0.079842      6.000000
  0.111755  0.048391 -0.085545     24.000000
  0.125725  0.040326 -0.091248     24.000000
  0.139694  0.032261 -0.096951     24.000000
  0.153663  0.024196 -0.102654     24.000000
  0.167633  0.016130 -0.108357     24.000000
 -0.167633  0.209696  0.028515     24.000000
 -0.153663  0.201631  0.022812     24.000000
 -0.139694  0.193566  0.017109     24.000000
 -0.125725  0.185501  0.011406     24.000000
 -0.111755  0.177435  0.005703     24.000000
 -0.097786  0.169370  0.000000     12.000000
  0.111755  0.064522 -0.091248      6.000000
  0.125725  0.056457 -0.096951     24.000000
  0.139694  0.048391 -0.102654     24.000000
  0.153663  0.040326 -0.108357     24.000000
  0.167633  0.032261 -0.114060     24.000000
 -0.167633  0.225827  0.022812     24.000000
 -0.153663  0.217762  0.017109     24.000000
 -0.139694  0.209696  0.011406     24.000000
 -0.125725  0.201631  0.005703     24.000000
 -0.111755  0.193566  0.000000     12.000000
  0.125725  0.072587 -0.102654      6.000000
  0.139694  0.064522 -0.108357     24.000000
  0.153663  0.056457 -0.114060     24.000000
  0.167633  0.048391 -0.119763     24.000000
 -0.167633  0.241957  0.017109     24.000000
 -0.153663  0.233892  0.011406     24.000000
 -0.139694  0.225827  0.005703     24.000000
 -0.125725  0.217762  0.000000     12.000000
  0.139694  0.080652 -0.114060      6.000000
  0.153663  0.072587 -0.119763     24.000000
  0.167633  0.064522 -0.125466     24.000000
 -0.167633  0.258088  0.011406     24.000000
 -0.153663  0.250022  0.005703     24.000000
 -0.139694  0.241957  0.000000     12.000000
  0.153663  0.088718 -0.125466      6.000000
  0.167633  0.080652 -0.131169     24.000000
 -0.167633  0.274218  0.005703     24.000000
 -0.153663  0.266153  0.000000     12.000000
  0.167633  0.096783 -0.136872      6.000000
 -0.167633  0.290349  0.000000     12.000000
  0.041908  0.008065 -0.011406     24.000000
  0.055878  0.000000 -0.017109     48.000000
  0.069847 -0.008065 -0.022812     48.000000
  0.083816 -0.016130 -0.028515     48.000000
  0.097786 -0.024196 -0.034218     48.000000
  0.111755 -0.032261 -0.039921     48.000000
  0.125725 -0.040326 -0.045624     48.000000
  0.139694 -0.048391 -0.051327     48.000000
  0.153663 -0.056457 -0.057030     48.000000
  0.167633 -0.064522 -0.062733     48.000000
 -0.167633  0.129044  0.074139     48.000000
  0.055878  0.016130 -0.022812     24.000000
  0.069847  0.008065 -0.028515     48.000000
  0.083816 -0.000000 -0.034218     48.000000
  0.097786 -0.008065 -0.039921     48.000000
  0.111755 -0.016130 -0.045624     48.000000
  0.125725 -0.024196 -0.051327     48.000000
  0.139694 -0.032261 -0.057030     48.000000
  0.153663 -0.040326 -0.062733     48.000000
  0.167633 -0.048391 -0.068436     48.000000
 -0.167633  0.145174  0.068436     48.000000
 -0.153663  0.137109  0.062733     48.000000
 -0.139694  0.129044  0.057030     48.000000
 -0.125725  0.120979  0.051327     48.000000
 -0.111755  0.112913  0.045624     48.000000
 -0.097786  0.104848  0.039921     48.000000
 -0.083816  0.096783  0.034218     48.000000
 -0.069847  0.088718  0.028515     48.000000
 -0.055878  0.080652  0.022812     48.000000
 -0.041908  0.072587  0.017109     48.000000
 -0.027939  0.064522  0.011406     24.000000
  0.069847  0.024196 -0.034218     24.000000
  0.083816  0.016130 -0.039921     48.000000
  0.097786  0.008065 -0.045624     48.000000
  0.111755 -0.000000 -0.051327     48.000000
  0.125725 -0.008065 -0.057030     48.000000
  0.139694 -0.016130 -0.062733     48.000000
  0.153663 -0.024196 -0.068436     48.000000
  0.167633 -0.032261 -0.074139     48.000000
 -0.167633  0.161305  0.062733     48.000000
 -0.153663  0.153240  0.057030     48.000000
 -0.139694  0.145174  0.051327     48.000000
 -0.125725  0.137109  0.045624     48.000000
 -0.111755  0.129044  0.039921     48.000000
 -0.097786  0.120979  0.034218     48.000000
 -0.083816  0.112913  0.028515     48.000000
 -0.069847  0.104848  0.022812     48.000000
 -0.055878  0.096783  0.017109     48.000000
 -0.041908  0.088718  0.011406     24.000000
  0.083816  0.032261 -0.045624     24.000000
  0.097786  0.024196 -0.051327     48.000000
  0.111755  0.016130 -0.057030     48.000000
  0.125725  0.008065 -0.062733     48.000000
  0.139694  0.000000 -0.068436     48.000000
  0.153663 -0.008065 -0.074139     48.000000
  0.167633 -0.016130 -0.079842     48.000000
 -0.167633  0.177435  0.057030     48.000000
 -0.153663  0.169370  0.051327     48.000000
 -0.139694  0.161305  0.045624     48.000000
 -0.125725  0.153240  0.039921     48.000000
 -0.111755  0.145174  0.034218     48.000000
 -0.097786  0.137109  0.028515     48.000000
 -0.083816  0.129044  0.022812     48.000000
 -0.069847  0.120979  0.017109     48.000000
 -0.055878  0.112913  0.011406     24.000000
  0.097786  0.040326 -0.057030     24.000000
  0.111755  0.032261 -0.062733     48.000000
  0.125725  0.024196 -0.068436     48.000000
  0.139694  0.016130 -0.074139     48.000000
  0.153663  0.008065 -0.079842     48.000000
  0.167633  0.000000 -0.085545     48.000000
 -0.167633  0.193566  0.051327     48.000000
 -0.153663  0.185501  0.045624     48.000000
 -0.139694  0.177435  0.039921     48.000000
 -0.125725  0.169370  0.034218     48.000000
 -0.111755  0.161305  0.028515     48.000000
 -0.097786  0.153240  0.022812     48.000000
 -0.083816  0.145174  0.017109     48.000000
 -0.069847  0.137109  0.011406     24.000000
  0.111755  0.048391 -0.068436     24.000000
  0.125725  0.040326 -0.074139     48.000000
  0.139694  0.032261 -0.079842     48.000000
  0.153663  0.024196 -0.085545     48.000000
  0.167633  0.016130 -0.091248     48.000000
 -0.167633  0.209696  0.045624     48.000000
 -0.153663  0.201631  0.039921     48.000000
 -0.139694  0.193566  0.034218     48.000000
 -0.125725  0.185501  0.028515     48.000000
 -0.111755  0.177435  0.022812     48.000000
 -0.097786  0.169370  0.017109     48.000000
 -0.083816  0.161305  0.011406     24.000000
  0.125725  0.056457 -0.079842     24.000000
  0.139694  0.048391 -0.085545     48.000000
  0.153663  0.040326 -0.091248     48.000000
  0.167633  0.032261 -0.096951     48.000000
 -0.167633  0.225827  0.039921     48.000000
 -0.153663  0.217762  0.034218     48.000000
 -0.139694  0.209696  0.028515     48.000000
 -0.125725  0.201631  0.022812     48.000000
 -0.111755  0.193566  0.017109     48.000000
 -0.097786  0.185501  0.011406     24.000000
  0.139694  0.064522 -0.091248     24.000000
  0.153663  0.056457 -0.096951     48.000000
  0.167633  0.048391 -0.102654     48.000000
 -0.167633  0.241957  0.034218     48.000000
 -0.153663  0.233892  0.028515     48.000000
 -0.139694  0.225827  0.022812     48.000000
 -0.125725  0.217762  0.017109     48.000000
 -0.111755  0.209696  0.011406     24.000000
  0.153663  0.072587 -0.102654     24.000000
  0.167633  0.064522 -0.108357     48.000000
 -0.167633  0.258088  0.028515     48.000000
 -0.153663  0.250022  0.022812     48.000000
 -0.139694  0.241957  0.017109     48.000000
 -0.125725  0.233892  0.011406     24.000000
  0.167633  0.080652 -0.114060     24.000000
 -0.167633  0.274218  0.022812     48.000000
 -0.153663  0.266153  0.017109     48.000000
 -0.139694  0.258088  0.011406     24.000000
 -0.167633  0.290349  0.017109     24.000000
 -0.153663  0.282283  0.011406     24.000000
  0.083816  0.016130 -0.022812     24.000000
  0.097786  0.008065 -0.028515     48.000000
  0.111755 -0.000000 -0.034218     48.000000
  0.125725 -0.008065 -0.039921     48.000000
  0.139694 -0.016130 -0.045624     48.000000
  0.153663 -0.024196 -0.051327     48.000000
  0.167633 -0.032261 -0.057030     48.000000
 -0.167633  0.161305  0.079842     48.000000
 -0.153663  0.153240  0.074139     48.000000
  0.097786  0.024196 -0.034218     24.000000
  0.111755  0.016130 -0.039921     48.000000
  0.125725  0.008065 -0.045624     48.000000
  0.139694  0.000000 -0.051327     48.000000
  0.153663 -0.008065 -0.057030     48.000000
  0.167633 -0.016130 -0.062733     48.000000
 -0.167633  0.177435  0.074139     48.000000
 -0.153663  0.169370  0.068436     48.000000
 -0.139694  0.161305  0.062733     48.000000
 -0.125725  0.153240  0.057030     48.000000
 -0.111755  0.145174  0.051327     48.000000
 -0.097786  0.137109  0.045624     48.000000
 -0.083816  0.129044  0.039921     48.000000
 -0.069847  0.120979  0.034218     48.000000
 -0.055878  0.112913  0.028515     48.000000
 -0.041908  0.104848  0.022812     24.000000
  0.111755  0.032261 -0.045624     24.000000
  0.125725  0.024196 -0.051327     48.000000
  0.139694  0.016130 -0.057030     48.000000
  0.153663  0.008065 -0.062733     48.000000
  0.167633  0.000000 -0.068436     48.000000
 -0.167633  0.193566  0.068436     48.000000
 -0.153663  0.185501  0.062733     48.000000
 -0.139694  0.177435  0.057030     48.000000
 -0.125725  0.169370  0.051327     48.000000
 -0.111755  0.161305  0.045624     48.000000
 -0.097786  0.153240  0.039921     48.000000
 -0.083816  0.145174  0.034218     48.000000
 -0.069847  0.137109  0.028515     48.000000
 -0.055878  0.129044  0.022812     24.000000
  0.125725  0.040326 -0.057030     24.000000
  0.139694  0.032261 -0.062733     48.000000
  0.153663  0.024196 -0.068436     48.000000
  0.167633  0.016130 -0.074139     48.000000
 -0.167633  0.209696  0.062733     48.000000
 -0.153663  0.201631  0.057030     48.000000
 -0.139694  0.193566  0.051327     48.000000
 -0.125725  0.185501  0.045624     48.000000
 -0.111755  0.177435  0.039921     48.000000
 -0.097786  0.169370  0.034218     48.000000
 -0.083816  0.161305  0.028515     48.000000
 -0.069847  0.153240  0.022812     24.000000
  0.139694  0.048391 -0.068436     24.000000
  0.153663  0.040326 -0.074139     48.000000
  0.167633  0.032261 -0.079842     48.000000
 -0.167633  0.225827  0.057030     48.000000
 -0.153663  0.217762  0.051327     48.000000
 -0.139694  0.209696  0.045624     48.000000
 -0.125725  0.201631  0.039921     48.000000
 -0.111755  0.193566  0.034218     48.000000
 -0.097786  0.185501  0.028515     48.000000
 -0.083816  0.177435  0.022812     24.000000
  0.153663  0.056457 -0.079842     24.000000
  0.167633  0.048391 -0.085545     48.000000
 -0.167633  0.241957  0.051327     48.000000
 -0.153663  0.233892  0.045624     48.000000
 -0.139694  0.225827  0.039921     48.000000
 -0.125725  0.217762  0.034218     48.000000
 -0.111755  0.209696  0.028515     48.000000
 -0.097786  0.201631  0.022812     24.000000
  0.167633  0.064522 -0.091248     24.000000
 -0.167633  0.258088  0.045624     48.000000
 -0.153663  0.250022  0.039921     48.000000
 -0.139694  0.241957  0.034218     48.000000
 -0.125725  0.233892  0.028515     48.000000
 -0.111755  0.225827  0.022812     24.000000
 -0.167633  0.274218  0.039921     24.000000
 -0.153663  0.266153  0.034218     48.000000
 -0.139694  0.258088  0.028515     48.000000
 -0.125725  0.250022  0.022812     24.000000
 -0.153663  0.282283  0.028515     24.000000
 -0.139694  0.274218  0.022812     24.000000
  0.125725  0.024196 -0.034218     24.000000
  0.139694  0.016130 -0.039921     48.000000
  0.153663  0.008065 -0.045624     48.000000
  0.167633  0.000000 -0.051327     48.000000
 -0.167633  0.193566  0.085545     48.000000
 -0.153663  0.185501  0.079842     48.000000
 -0.139694  0.177435  0.074139     48.000000
  0.139694  0.032261 -0.045624     24.000000
  0.153663  0.024196 -0.051327     48.000000
  0.167633  0.016130 -0.057030     48.000000
 -0.167633  0.209696  0.079842     48.000000
 -0.153663  0.201631  0.074139     48.000000
 -0.139694  0.193566  0.068436     48.000000
 -0.125725  0.185501  0.062733     48.000000
 -0.111755  0.177435  0.057030     48.000000
 -0.097786  0.169370  0.051327     48.000000
 -0.083816  0.161305  0.045624     48.000000
 -0.069847  0.153240  0.039921     48.000000
 -0.055878  0.145174  0.034218     24.000000
  0.153663  0.040326 -0.057030     24.000000
  0.167633  0.032261 -0.062733     48.000000
 -0.167633  0.225827  0.074139     48.000000
 -0.153663  0.217762  0.068436     48.000000
 -0.139694  0.209696  0.062733     48.000000
 -0.125725  0.201631  0.057030     48.000000
 -0.111755  0.193566  0.051327     48.000000
 -0.097786  0.185501  0.045624     48.000000
 -0.083816  0.177435  0.039921     48.000000
 -0.069847  0.169370  0.034218     24.000000
  0.167633  0.048391 -0.068436     24.000000
 -0.167633  0.241957  0.068436     48.000000
 -0.153663  0.233892  0.062733     48.000000
 -0.139694  0.225827  0.057030     48.000000
 -0.125725  0.217762  0.051327     48.000000
 -0.111755  0.209696  0.045624     48.000000
 -0.097786  0.201631  0.039921     48.000000
 -0.083816  0.193566  0.034218     24.000000
 -0.167633  0.258088  0.062733     24.000000
 -0.153663  0.250022  0.057030     48.000000
 -0.139694  0.241957  0.051327     48.000000
 -0.125725  0.233892  0.045624     48.000000
 -0.111755  0.225827  0.039921     48.000000
 -0.097786  0.217762  0.034218     24.000000
 -0.153663  0.266153  0.051327     24.000000
 -0.139694  0.258088  0.045624     48.000000
 -0.125725  0.250022  0.039921     48.000000
 -0.111755  0.241957  0.034218     24.000000
 -0.139694  0.274218  0.039921     24.000000
 -0.125725  0.266153  0.034218     24.000000
  0.167633  0.032261 -0.045624     24.000000
 -0.167633  0.225827  0.091248     48.000000
 -0.153663  0.217762  0.085545     48.000000
 -0.139694  0.209696  0.079842     48.000000
 -0.125725  0.201631  0.074139     48.000000
 -0.167633  0.241957  0.085545     24.000000
 -0.153663  0.233892  0.079842     48.000000
 -0.139694  0.225827  0.074139     48.000000
 -0.125725  0.217762  0.068436     48.000000
 -0.111755  0.209696  0.062733     48.000000
 -0.097786  0.201631  0.057030     48.000000
 -0.083816  0.193566  0.051327     48.000000
 -0.069847  0.185501  0.045624     24.000000
 -0.153663  0.250022  0.074139     24.000000
 -0.139694  0.241957  0.068436     48.000000
 -0.125725  0.233892  0.062733     48.000000
 -0.111755  0.225827  0.057030     48.000000
 -0.097786  0.217762  0.051327     48.000000
 -0.083816  0.209696  0.045624     24.000000
 -0.139694  0.258088  0.062733     24.000000
 -0.125725  0.250022  0.057030     48.000000
 -0.111755  0.241957  0.051327     48.000000
 -0.097786  0.233892  0.045624     24.000000
 -0.125725  0.266153  0.051327     24.000000
 -0.111755  0.258088  0.045624     24.000000
 -0.139694  0.241957  0.085545     24.000000
 -0.125725  0.233892  0.079842     48.000000
 -0.111755  0.225827  0.074139     48.000000
 -0.125725  0.250022  0.074139     24.000000
 -0.111755  0.241957  0.068436     48.000000
 -0.097786  0.233892  0.062733     48.000000
 -0.083816  0.225827  0.057030     24.000000
 -0.111755  0.258088  0.062733     24.000000
 -0.097786  0.250022  0.057030     24.000000
 -0.097786  0.250022  0.074139     24.000000
 


--------------------------------------------------------------------------------------------------------




 Dimension of arrays:
   k-points           NKPTS =    455   k-points in BZ     NKDIM =    455   number of bands    NBANDS=      5
   number of dos      NEDOS =    301   number of ions     NIONS =      1
   non local maximal  LDIM  =      4   non local SUM 2l+1 LMDIM =      8
   total plane-waves  NPLWV = 216000
   max r-space proj   IRMAX =      1   max aug-charges    IRDMAX=   7822
   dimension x,y,z NGX =    60 NGY =   60 NGZ =   60
   dimension x,y,z NGXF=   120 NGYF=  120 NGZF=  120
   support grid    NGXF=   120 NGYF=  120 NGZF=  120
   ions per type =               1
   NGX,Y,Z   is equivalent  to a cutoff of   8.60,  8.60,  8.60 a.u.
   NGXF,Y,Z  is equivalent  to a cutoff of  17.20, 17.20, 17.20 a.u.

 SYSTEM =  Al atom                                 
 POSCAR =  Al                                      

 Startparameter for this run:
   NWRITE =      2    write-flag & timer
   PREC   = normal    normal or accurate (medium, high low for compatibility)
   ISTART =      1    job   : 0-new  1-cont  2-samecut
   ICHARG =      0    charge: 1-file 2-atom 10-const
   ISPIN  =      1    spin polarized calculation?
   LNONCOLLINEAR =      F non collinear calculations
   LSORBIT =      F    spin-orbit coupling
   INIWAV =      1    electr: 0-lowe 1-rand  2-diag
   LASPH  =      F    aspherical Exc in radial PAW
 Electronic Relaxation 1
   ENCUT  =  400.0 eV  29.40 Ry    5.42 a.u.  18.91 18.91 18.91*2*pi/ulx,y,z
   ENINI  =  400.0     initial cutoff
   ENAUG  =  291.1 eV  augmentation charge cutoff
   NELM   =     60;   NELMIN=  2; NELMDL=  0     # of ELM steps 
   EDIFF  = 0.1E-03   stopping-criterion for ELM
   LREAL  =      F    real-space projection
   NLSPLINE    = F    spline interpolate recip. space projectors
   LCOMPAT=      F    compatible to vasp.4.4
   GGA_COMPAT  = T    GGA compatible to vasp.4.4-vasp.4.6
   LMAXPAW     = -100 max onsite density
   LMAXMIX     =    2 max onsite mixed and CHGCAR
   VOSKOWN=      0    Vosko Wilk Nusair interpolation
   ROPT   =    0.00000
 Ionic relaxation
   EDIFFG = 0.1E-02   stopping-criterion for IOM
   NSW    =      0    number of steps for IOM
   NBLOCK =      1;   KBLOCK =      1    inner block; outer block 
   IBRION =     -1    ionic relax: 0-MD 1-quasi-New 2-CG
   NFREE  =      0    steps in history (QN), initial steepest desc. (CG)
   ISIF   =      2    stress and relaxation
   IWAVPR =     10    prediction:  0-non 1-charg 2-wave 3-comb
   ISYM   =      2    0-nonsym 1-usesym 2-fastsym
   LCORR  =      T    Harris-Foulkes like correction to forces

   POTIM  = 0.5000    time-step for ionic-motion
   TEIN   =    0.0    initial temperature
   TEBEG  =    0.0;   TEEND  =   0.0 temperature during run
   SMASS  =  -3.00    Nose mass-parameter (am)
   estimated Nose-frequenzy (Omega)   =  0.10E-29 period in steps = 0.13E+47 mass=  -0.307E-26a.u.
   SCALEE = 1.0000    scale energy and forces
   NPACO  =    256;   APACO  = 10.0  distance and # of slots for P.C.
   PSTRESS=    0.0 pullay stress

  Mass of Ions in am
   POMASS =  26.98
  Ionic Valenz
   ZVAL   =   3.00
  Atomic Wigner-Seitz radii
   RWIGS  =  -1.00
  virtual crystal weights 
   VCA    =   1.00
   NELECT =       3.0000    total number of electrons
   NUPDOWN=      -1.0000    fix difference up-down

 DOS related values:
   EMIN   =  10.00;   EMAX   =-10.00  energy-range for DOS
   EFERMI =   0.00;   METHOD = LEGACY      
   ISMEAR =    -5;   SIGMA  =   0.20  broadening in eV -4-tet -1-fermi 0-gaus

 Electronic relaxation 2 (details)
   IALGO  =     38    algorithm
   LDIAG  =      T    sub-space diagonalisation (order eigenvalues)
   LSUBROT=      F    optimize rotation matrix (better conditioning)
   TURBO    =      0    0=normal 1=particle mesh
   IRESTART =      0    0=no restart 2=restart with 2 vectors
   NREBOOT  =      0    no. of reboots
   NMIN     =      0    reboot dimension
   EREF     =   0.00    reference energy to select bands
   IMIX   =      4    mixing-type and parameters
     AMIX     =   0.40;   BMIX     =  1.00
     AMIX_MAG =   1.60;   BMIX_MAG =  1.00
     AMIN     =   0.10
     WC   =   100.;   INIMIX=   1;  MIXPRE=   1;  MAXMIX= -45

 Intra band minimization:
   WEIMIN = 0.0000     energy-eigenvalue tresh-hold
   EBREAK =  0.50E-05  absolut break condition
   DEPER  =   0.30     relativ break condition  

   TIME   =   0.40     timestep for ELM

  volume/ion in A,a.u.               =    1102.80      7442.05
  Fermi-wavevector in a.u.,A,eV,Ry     =   0.228534  0.431866  0.710599  0.052228
  Thomas-Fermi vector in A             =   1.019363

 Write flags
   LWAVE        =      T    write WAVECAR
   LDOWNSAMPLE  =      F    k-point downsampling of WAVECAR
   LCHARG       =      F    write CHGCAR
   LVTOT        =      F    write LOCPOT, total local potential
   LVHAR        =      F    write LOCPOT, Hartree potential only
   LELF         =      F    write electronic localiz. function (ELF)
   LORBIT       =      0    0 simple, 1 ext, 2 COOP (PROOUT), +10 PAW based schemes


 Dipole corrections
   LMONO  =      F    monopole corrections only (constant potential shift)
   LDIPOL =      F    correct potential (dipole corrections)
   IDIPOL =      0    1-x, 2-y, 3-z, 4-all directions 
   EPSILON=  1.0000000 bulk dielectric constant

 Exchange correlation treatment:
   GGA     =    --    GGA type
   LEXCH   =     8    internal setting for exchange type
   LIBXC   =     F    Libxc                    
   VOSKOWN =     0    Vosko Wilk Nusair interpolation
   LHFCALC =     F    Hartree Fock is set to
   LHFONE  =     F    Hartree Fock one center treatment
   AEXX    =    0.0000 exact exchange contribution

 Linear response parameters
   LEPSILON=     F    determine dielectric tensor
   LRPA    =     F    only Hartree local field effects (RPA)
   LNABLA  =     F    use nabla operator in PAW spheres
   LVEL    =     F    velocity operator in full k-point grid
   CSHIFT  =0.1000    complex shift for real part using Kramers Kronig
   OMEGAMAX=  -1.0    maximum frequency
   DEG_THRESHOLD= 0.2000000E-02 threshold for treating states as degnerate
   RTIME   =   -0.100 relaxation time in fs
  (WPLASMAI=    0.000 imaginary part of plasma frequency in eV, 0.658/RTIME)
   DFIELD  = 0.0000000 0.0000000 0.0000000 field for delta impulse in time

  Optional k-point grid parameters
   LKPOINTS_OPT  =     F    use optional k-point grid
   KPOINTS_OPT_MODE=     1    mode for optional k-point grid

 Orbital magnetization related:
   ORBITALMAG=     F  switch on orbital magnetization
   LCHIMAG   =     F  perturbation theory with respect to B field
   DQ        =  0.001000  dq finite difference perturbation B field
   LLRAUG    =     F  two centre corrections for induced B field
   LBONE     =     F  B-component reconstruction in AE one-centre
   LVGVCALC  =     T  calculate vGv susceptibility
   LVGVAPPL  =     F  apply vGv susceptibility instead of pGv for G=0

 Random number generation:
   RANDOM_GENERATOR = DEFAULT
   PCG_SEED         = not used


--------------------------------------------------------------------------------------------------------


 Static calculation
 charge density and potential will be updated during run
 non-spin polarized calculation
 Variant of blocked Davidson
 Davidson routine will perform the subspace rotation
 perform sub-space diagonalisation
    after iterative eigenvector-optimisation
 modified Broyden-mixing scheme, WC =      100.0
 initial mixing is a Kerker type mixing with AMIX =  0.4000 and BMIX =      1.0000
 Hartree-type preconditioning will be used
 using additional bands            3
 reciprocal scheme for non local part
 use partial core corrections
 calculate Harris-corrections to forces   (improved forces if not selfconsistent)
 use gradient corrections 
 use of overlap-Matrix (Vanderbilt PP)
 Fermi weights with tetrahedron method with Bloechl corrections


--------------------------------------------------------------------------------------------------------


  energy-cutoff  :      400.00
  volume of cell :     1102.80
      direct lattice vectors                 reciprocal lattice vectors
    11.596770000  0.000000000  0.000000000     0.086230907 -0.049785438 -0.035203621
     5.798385000 10.043097422  0.000000000     0.000000000  0.099570875 -0.035203621
     5.798385000  3.347699141  9.468723055     0.000000000  0.000000000  0.105610862

  length of vectors
    11.596770000 11.596770000 11.596770000     0.105610862  0.105610862  0.105610862



 old parameters found on file WAVECAR:
  energy-cutoff  :      400.00
  volume of cell :      742.70
      direct lattice vectors                 reciprocal lattice vectors
    10.165070000  0.000000000  0.000000000     0.098376106 -0.056797471 -0.040161877
     5.082535000  8.803208851  0.000000000     0.000000000  0.113594942 -0.040161877
     5.082535000  2.934402950  8.299744900     0.000000000  0.000000000  0.120485631

  length of vectors


 k-points in units of 2pi/SCALE and weight: Al Atom   # System label                
   0.00000000  0.00000000  0.00000000       0.000
   0.01396941 -0.00806524 -0.00570299       0.001
   0.02793881 -0.01613048 -0.01140597       0.001
   0.04190822 -0.02419572 -0.01710896       0.001
   0.05587763 -0.03226096 -0.02281195       0.001
   0.06984703 -0.04032620 -0.02851493       0.001
   0.08381644 -0.04839145 -0.03421792       0.001
   0.09778585 -0.05645669 -0.03992091       0.001
   0.11175526 -0.06452193 -0.04562389       0.001
   0.12572466 -0.07258717 -0.05132688       0.001
   0.13969407 -0.08065241 -0.05702987       0.001
   0.15366348 -0.08871765 -0.06273285       0.001
   0.16763288 -0.09678289 -0.06843584       0.001
   0.01396941  0.00806524 -0.01140597       0.000
   0.02793881  0.00000000 -0.01710896       0.002
   0.04190822 -0.00806524 -0.02281195       0.002
   0.05587763 -0.01613048 -0.02851493       0.002
   0.06984703 -0.02419572 -0.03421792       0.002
   0.08381644 -0.03226096 -0.03992091       0.002
   0.09778585 -0.04032620 -0.04562389       0.002
   0.11175526 -0.04839145 -0.05132688       0.002
   0.12572466 -0.05645669 -0.05702987       0.002
   0.13969407 -0.06452193 -0.06273285       0.002
   0.15366348 -0.07258717 -0.06843584       0.002
   0.16763288 -0.08065241 -0.07413882       0.002
  -0.16763288  0.11291337  0.06273285       0.002
  -0.15366348  0.10484813  0.05702987       0.002
  -0.13969407  0.09678289  0.05132688       0.002
  -0.12572466  0.08871765  0.04562389       0.002
  -0.11175526  0.08065241  0.03992091       0.002
  -0.09778585  0.07258717  0.03421792       0.002
  -0.08381644  0.06452193  0.02851493       0.002
  -0.06984703  0.05645669  0.02281195       0.002
  -0.05587763  0.04839145  0.01710896       0.002
  -0.04190822  0.04032620  0.01140597       0.002
  -0.02793881  0.03226096  0.00570299       0.002
  -0.01396941  0.02419572  0.00000000       0.001
   0.02793881  0.01613048 -0.02281195       0.000
   0.04190822  0.00806524 -0.02851493       0.002
   0.05587763  0.00000000 -0.03421792       0.002
   0.06984703 -0.00806524 -0.03992091       0.002
   0.08381644 -0.01613048 -0.04562389       0.002
   0.09778585 -0.02419572 -0.05132688       0.002
   0.11175526 -0.03226096 -0.05702987       0.002
   0.12572466 -0.04032620 -0.06273285       0.002
   0.13969407 -0.04839145 -0.06843584       0.002
   0.15366348 -0.05645669 -0.07413882       0.002
   0.16763288 -0.06452193 -0.07984181       0.002
  -0.16763288  0.12904385  0.05702987       0.002
  -0.15366348  0.12097861  0.05132688       0.002
  -0.13969407  0.11291337  0.04562389       0.002
  -0.12572466  0.10484813  0.03992091       0.002
  -0.11175526  0.09678289  0.03421792       0.002
  -0.09778585  0.08871765  0.02851493       0.002
  -0.08381644  0.08065241  0.02281195       0.002
  -0.06984703  0.07258717  0.01710896       0.002
  -0.05587763  0.06452193  0.01140597       0.002
  -0.04190822  0.05645669  0.00570299       0.002
  -0.02793881  0.04839145  0.00000000       0.001
   0.04190822  0.02419572 -0.03421792       0.000
   0.05587763  0.01613048 -0.03992091       0.002
   0.06984703  0.00806524 -0.04562389       0.002
   0.08381644 -0.00000000 -0.05132688       0.002
   0.09778585 -0.00806524 -0.05702987       0.002
   0.11175526 -0.01613048 -0.06273285       0.002
   0.12572466 -0.02419572 -0.06843584       0.002
   0.13969407 -0.03226096 -0.07413882       0.002
   0.15366348 -0.04032620 -0.07984181       0.002
   0.16763288 -0.04839145 -0.08554480       0.002
  -0.16763288  0.14517434  0.05132688       0.002
  -0.15366348  0.13710910  0.04562389       0.002
  -0.13969407  0.12904385  0.03992091       0.002
  -0.12572466  0.12097861  0.03421792       0.002
  -0.11175526  0.11291337  0.02851493       0.002
  -0.09778585  0.10484813  0.02281195       0.002
  -0.08381644  0.09678289  0.01710896       0.002
  -0.06984703  0.08871765  0.01140597       0.002
  -0.05587763  0.08065241  0.00570299       0.002
  -0.04190822  0.07258717  0.00000000       0.001
   0.05587763  0.03226096 -0.04562389       0.000
   0.06984703  0.02419572 -0.05132688       0.002
   0.08381644  0.01613048 -0.05702987       0.002
   0.09778585  0.00806524 -0.06273285       0.002
   0.11175526 -0.00000000 -0.06843584       0.002
   0.12572466 -0.00806524 -0.07413882       0.002
   0.13969407 -0.01613048 -0.07984181       0.002
   0.15366348 -0.02419572 -0.08554480       0.002
   0.16763288 -0.03226096 -0.09124778       0.002
  -0.16763288  0.16130482  0.04562389       0.002
  -0.15366348  0.15323958  0.03992091       0.002
  -0.13969407  0.14517434  0.03421792       0.002
  -0.12572466  0.13710910  0.02851493       0.002
  -0.11175526  0.12904385  0.02281195       0.002
  -0.09778585  0.12097861  0.01710896       0.002
  -0.08381644  0.11291337  0.01140597       0.002
  -0.06984703  0.10484813  0.00570299       0.002
  -0.05587763  0.09678289  0.00000000       0.001
   0.06984703  0.04032620 -0.05702987       0.000
   0.08381644  0.03226096 -0.06273285       0.002
   0.09778585  0.02419572 -0.06843584       0.002
   0.11175526  0.01613048 -0.07413882       0.002
   0.12572466  0.00806524 -0.07984181       0.002
   0.13969407  0.00000000 -0.08554480       0.002
   0.15366348 -0.00806524 -0.09124778       0.002
   0.16763288 -0.01613048 -0.09695077       0.002
  -0.16763288  0.17743530  0.03992091       0.002
  -0.15366348  0.16937006  0.03421792       0.002
  -0.13969407  0.16130482  0.02851493       0.002
  -0.12572466  0.15323958  0.02281195       0.002
  -0.11175526  0.14517434  0.01710896       0.002
  -0.09778585  0.13710910  0.01140597       0.002
  -0.08381644  0.12904385  0.00570299       0.002
  -0.06984703  0.12097861  0.00000000       0.001
   0.08381644  0.04839145 -0.06843584       0.000
   0.09778585  0.04032620 -0.07413882       0.002
   0.11175526  0.03226096 -0.07984181       0.002
   0.12572466  0.02419572 -0.08554480       0.002
   0.13969407  0.01613048 -0.09124778       0.002
   0.15366348  0.00806524 -0.09695077       0.002
   0.16763288  0.00000000 -0.10265376       0.002
  -0.16763288  0.19356578  0.03421792       0.002
  -0.15366348  0.18550054  0.02851493       0.002
  -0.13969407  0.17743530  0.02281195       0.002
  -0.12572466  0.16937006  0.01710896       0.002
  -0.11175526  0.16130482  0.01140597       0.002
  -0.09778585  0.15323958  0.00570299       0.002
  -0.08381644  0.14517434  0.00000000       0.001
   0.09778585  0.05645669 -0.07984181       0.000
   0.11175526  0.04839145 -0.08554480       0.002
   0.12572466  0.04032620 -0.09124778       0.002
   0.13969407  0.03226096 -0.09695077       0.002
   0.15366348  0.02419572 -0.10265376       0.002
   0.16763288  0.01613048 -0.10835674       0.002
  -0.16763288  0.20969626  0.02851493       0.002
  -0.15366348  0.20163102  0.02281195       0.002
  -0.13969407  0.19356578  0.01710896       0.002
  -0.12572466  0.18550054  0.01140597       0.002
  -0.11175526  0.17743530  0.00570299       0.002
  -0.09778585  0.16937006  0.00000000       0.001
   0.11175526  0.06452193 -0.09124778       0.000
   0.12572466  0.05645669 -0.09695077       0.002
   0.13969407  0.04839145 -0.10265376       0.002
   0.15366348  0.04032620 -0.10835674       0.002
   0.16763288  0.03226096 -0.11405973       0.002
  -0.16763288  0.22582674  0.02281195       0.002
  -0.15366348  0.21776150  0.01710896       0.002
  -0.13969407  0.20969626  0.01140597       0.002
  -0.12572466  0.20163102  0.00570299       0.002
  -0.11175526  0.19356578  0.00000000       0.001
   0.12572466  0.07258717 -0.10265376       0.000
   0.13969407  0.06452193 -0.10835674       0.002
   0.15366348  0.05645669 -0.11405973       0.002
   0.16763288  0.04839145 -0.11976272       0.002
  -0.16763288  0.24195723  0.01710896       0.002
  -0.15366348  0.23389199  0.01140597       0.002
  -0.13969407  0.22582674  0.00570299       0.002
  -0.12572466  0.21776150  0.00000000       0.001
   0.13969407  0.08065241 -0.11405973       0.000
   0.15366348  0.07258717 -0.11976272       0.002
   0.16763288  0.06452193 -0.12546570       0.002
  -0.16763288  0.25808771  0.01140597       0.002
  -0.15366348  0.25002247  0.00570299       0.002
  -0.13969407  0.24195723  0.00000000       0.001
   0.15366348  0.08871765 -0.12546570       0.000
   0.16763288  0.08065241 -0.13116869       0.002
  -0.16763288  0.27421819  0.00570299       0.002
  -0.15366348  0.26615295  0.00000000       0.001
   0.16763288  0.09678289 -0.13687168       0.000
  -0.16763288  0.29034867  0.00000000       0.001
   0.04190822  0.00806524 -0.01140597       0.002
   0.05587763  0.00000000 -0.01710896       0.003
   0.06984703 -0.00806524 -0.02281195       0.003
   0.08381644 -0.01613048 -0.02851493       0.003
   0.09778585 -0.02419572 -0.03421792       0.003
   0.11175526 -0.03226096 -0.03992091       0.003
   0.12572466 -0.04032620 -0.04562389       0.003
   0.13969407 -0.04839145 -0.05132688       0.003
   0.15366348 -0.05645669 -0.05702987       0.003
   0.16763288 -0.06452193 -0.06273285       0.003
  -0.16763288  0.12904385  0.07413882       0.003
   0.05587763  0.01613048 -0.02281195       0.002
   0.06984703  0.00806524 -0.02851493       0.003
   0.08381644 -0.00000000 -0.03421792       0.003
   0.09778585 -0.00806524 -0.03992091       0.003
   0.11175526 -0.01613048 -0.04562389       0.003
   0.12572466 -0.02419572 -0.05132688       0.003
   0.13969407 -0.03226096 -0.05702987       0.003
   0.15366348 -0.04032620 -0.06273285       0.003
   0.16763288 -0.04839145 -0.06843584       0.003
  -0.16763288  0.14517434  0.06843584       0.003
  -0.15366348  0.13710910  0.06273285       0.003
  -0.13969407  0.12904385  0.05702987       0.003
  -0.12572466  0.12097861  0.05132688       0.003
  -0.11175526  0.11291337  0.04562389       0.003
  -0.09778585  0.10484813  0.03992091       0.003
  -0.08381644  0.09678289  0.03421792       0.003
  -0.06984703  0.08871765  0.02851493       0.003
  -0.05587763  0.08065241  0.02281195       0.003
  -0.04190822  0.07258717  0.01710896       0.003
  -0.02793881  0.06452193  0.01140597       0.002
   0.06984703  0.02419572 -0.03421792       0.002
   0.08381644  0.01613048 -0.03992091       0.003
   0.09778585  0.00806524 -0.04562389       0.003
   0.11175526 -0.00000000 -0.05132688       0.003
   0.12572466 -0.00806524 -0.05702987       0.003
   0.13969407 -0.01613048 -0.06273285       0.003
   0.15366348 -0.02419572 -0.06843584       0.003
   0.16763288 -0.03226096 -0.07413882       0.003
  -0.16763288  0.16130482  0.06273285       0.003
  -0.15366348  0.15323958  0.05702987       0.003
  -0.13969407  0.14517434  0.05132688       0.003
  -0.12572466  0.13710910  0.04562389       0.003
  -0.11175526  0.12904385  0.03992091       0.003
  -0.09778585  0.12097861  0.03421792       0.003
  -0.08381644  0.11291337  0.02851493       0.003
  -0.06984703  0.10484813  0.02281195       0.003
  -0.05587763  0.09678289  0.01710896       0.003
  -0.04190822  0.08871765  0.01140597       0.002
   0.08381644  0.03226096 -0.04562389       0.002
   0.09778585  0.02419572 -0.05132688       0.003
   0.11175526  0.01613048 -0.05702987       0.003
   0.12572466  0.00806524 -0.06273285       0.003
   0.13969407  0.00000000 -0.06843584       0.003
   0.15366348 -0.00806524 -0.07413882       0.003
   0.16763288 -0.01613048 -0.07984181       0.003
  -0.16763288  0.17743530  0.05702987       0.003
  -0.15366348  0.16937006  0.05132688       0.003
  -0.13969407  0.16130482  0.04562389       0.003
  -0.12572466  0.15323958  0.03992091       0.003
  -0.11175526  0.14517434  0.03421792       0.003
  -0.09778585  0.13710910  0.02851493       0.003
  -0.08381644  0.12904385  0.02281195       0.003
  -0.06984703  0.12097861  0.01710896       0.003
  -0.05587763  0.11291337  0.01140597       0.002
   0.09778585  0.04032620 -0.05702987       0.002
   0.11175526  0.03226096 -0.06273285       0.003
   0.12572466  0.02419572 -0.06843584       0.003
   0.13969407  0.01613048 -0.07413882       0.003
   0.15366348  0.00806524 -0.07984181       0.003
   0.16763288  0.00000000 -0.08554480       0.003
  -0.16763288  0.19356578  0.05132688       0.003
  -0.15366348  0.18550054  0.04562389       0.003
  -0.13969407  0.17743530  0.03992091       0.003
  -0.12572466  0.16937006  0.03421792       0.003
  -0.11175526  0.16130482  0.02851493       0.003
  -0.09778585  0.15323958  0.02281195       0.003
  -0.08381644  0.14517434  0.01710896       0.003
  -0.06984703  0.13710910  0.01140597       0.002
   0.11175526  0.04839145 -0.06843584       0.002
   0.12572466  0.04032620 -0.07413882       0.003
   0.13969407  0.03226096 -0.07984181       0.003
   0.15366348  0.02419572 -0.08554480       0.003
   0.16763288  0.01613048 -0.09124778       0.003
  -0.16763288  0.20969626  0.04562389       0.003
  -0.15366348  0.20163102  0.03992091       0.003
  -0.13969407  0.19356578  0.03421792       0.003
  -0.12572466  0.18550054  0.02851493       0.003
  -0.11175526  0.17743530  0.02281195       0.003
  -0.09778585  0.16937006  0.01710896       0.003
  -0.08381644  0.16130482  0.01140597       0.002
   0.12572466  0.05645669 -0.07984181       0.002
   0.13969407  0.04839145 -0.08554480       0.003
   0.15366348  0.04032620 -0.09124778       0.003
   0.16763288  0.03226096 -0.09695077       0.003
  -0.16763288  0.22582674  0.03992091       0.003
  -0.15366348  0.21776150  0.03421792       0.003
  -0.13969407  0.20969626  0.02851493       0.003
  -0.12572466  0.20163102  0.02281195       0.003
  -0.11175526  0.19356578  0.01710896       0.003
  -0.09778585  0.18550054  0.01140597       0.002
   0.13969407  0.06452193 -0.09124778       0.002
   0.15366348  0.05645669 -0.09695077       0.003
   0.16763288  0.04839145 -0.10265376       0.003
  -0.16763288  0.24195723  0.03421792       0.003
  -0.15366348  0.23389199  0.02851493       0.003
  -0.13969407  0.22582674  0.02281195       0.003
  -0.12572466  0.21776150  0.01710896       0.003
  -0.11175526  0.20969626  0.01140597       0.002
   0.15366348  0.07258717 -0.10265376       0.002
   0.16763288  0.06452193 -0.10835674       0.003
  -0.16763288  0.25808771  0.02851493       0.003
  -0.15366348  0.25002247  0.02281195       0.003
  -0.13969407  0.24195723  0.01710896       0.003
  -0.12572466  0.23389199  0.01140597       0.002
   0.16763288  0.08065241 -0.11405973       0.002
  -0.16763288  0.27421819  0.02281195       0.003
  -0.15366348  0.26615295  0.01710896       0.003
  -0.13969407  0.25808771  0.01140597       0.002
  -0.16763288  0.29034867  0.01710896       0.002
  -0.15366348  0.28228343  0.01140597       0.002
   0.08381644  0.01613048 -0.02281195       0.002
   0.09778585  0.00806524 -0.02851493       0.003
   0.11175526 -0.00000000 -0.03421792       0.003
   0.12572466 -0.00806524 -0.03992091       0.003
   0.13969407 -0.01613048 -0.04562389       0.003
   0.15366348 -0.02419572 -0.05132688       0.003
   0.16763288 -0.03226096 -0.05702987       0.003
  -0.16763288  0.16130482  0.07984181       0.003
  -0.15366348  0.15323958  0.07413882       0.003
   0.09778585  0.02419572 -0.03421792       0.002
   0.11175526  0.01613048 -0.03992091       0.003
   0.12572466  0.00806524 -0.04562389       0.003
   0.13969407  0.00000000 -0.05132688       0.003
   0.15366348 -0.00806524 -0.05702987       0.003
   0.16763288 -0.01613048 -0.06273285       0.003
  -0.16763288  0.17743530  0.07413882       0.003
  -0.15366348  0.16937006  0.06843584       0.003
  -0.13969407  0.16130482  0.06273285       0.003
  -0.12572466  0.15323958  0.05702987       0.003
  -0.11175526  0.14517434  0.05132688       0.003
  -0.09778585  0.13710910  0.04562389       0.003
  -0.08381644  0.12904385  0.03992091       0.003
  -0.06984703  0.12097861  0.03421792       0.003
  -0.05587763  0.11291337  0.02851493       0.003
  -0.04190822  0.10484813  0.02281195       0.002
   0.11175526  0.03226096 -0.04562389       0.002
   0.12572466  0.02419572 -0.05132688       0.003
   0.13969407  0.01613048 -0.05702987       0.003
   0.15366348  0.00806524 -0.06273285       0.003
   0.16763288  0.00000000 -0.06843584       0.003
  -0.16763288  0.19356578  0.06843584       0.003
  -0.15366348  0.18550054  0.06273285       0.003
  -0.13969407  0.17743530  0.05702987       0.003
  -0.12572466  0.16937006  0.05132688       0.003
  -0.11175526  0.16130482  0.04562389       0.003
  -0.09778585  0.15323958  0.03992091       0.003
  -0.08381644  0.14517434  0.03421792       0.003
  -0.06984703  0.13710910  0.02851493       0.003
  -0.05587763  0.12904385  0.02281195       0.002
   0.12572466  0.04032620 -0.05702987       0.002
   0.13969407  0.03226096 -0.06273285       0.003
   0.15366348  0.02419572 -0.06843584       0.003
   0.16763288  0.01613048 -0.07413882       0.003
  -0.16763288  0.20969626  0.06273285       0.003
  -0.15366348  0.20163102  0.05702987       0.003
  -0.13969407  0.19356578  0.05132688       0.003
  -0.12572466  0.18550054  0.04562389       0.003
  -0.11175526  0.17743530  0.03992091       0.003
  -0.09778585  0.16937006  0.03421792       0.003
  -0.08381644  0.16130482  0.02851493       0.003
  -0.06984703  0.15323958  0.02281195       0.002
   0.13969407  0.04839145 -0.06843584       0.002
   0.15366348  0.04032620 -0.07413882       0.003
   0.16763288  0.03226096 -0.07984181       0.003
  -0.16763288  0.22582674  0.05702987       0.003
  -0.15366348  0.21776150  0.05132688       0.003
  -0.13969407  0.20969626  0.04562389       0.003
  -0.12572466  0.20163102  0.03992091       0.003
  -0.11175526  0.19356578  0.03421792       0.003
  -0.09778585  0.18550054  0.02851493       0.003
  -0.08381644  0.17743530  0.02281195       0.002
   0.15366348  0.05645669 -0.07984181       0.002
   0.16763288  0.04839145 -0.08554480       0.003
  -0.16763288  0.24195723  0.05132688       0.003
  -0.15366348  0.23389199  0.04562389       0.003
  -0.13969407  0.22582674  0.03992091       0.003
  -0.12572466  0.21776150  0.03421792       0.003
  -0.11175526  0.20969626  0.02851493       0.003
  -0.09778585  0.20163102  0.02281195       0.002
   0.16763288  0.06452193 -0.09124778       0.002
  -0.16763288  0.25808771  0.04562389       0.003
  -0.15366348  0.25002247  0.03992091       0.003
  -0.13969407  0.24195723  0.03421792       0.003
  -0.12572466  0.23389199  0.02851493       0.003
  -0.11175526  0.22582674  0.02281195       0.002
  -0.16763288  0.27421819  0.03992091       0.002
  -0.15366348  0.26615295  0.03421792       0.003
  -0.13969407  0.25808771  0.02851493       0.003
  -0.12572466  0.25002247  0.02281195       0.002
  -0.15366348  0.28228343  0.02851493       0.002
  -0.13969407  0.27421819  0.02281195       0.002
   0.12572466  0.02419572 -0.03421792       0.002
   0.13969407  0.01613048 -0.03992091       0.003
   0.15366348  0.00806524 -0.04562389       0.003
   0.16763288  0.00000000 -0.05132688       0.003
  -0.16763288  0.19356578  0.08554480       0.003
  -0.15366348  0.18550054  0.07984181       0.003
  -0.13969407  0.17743530  0.07413882       0.003
   0.13969407  0.03226096 -0.04562389       0.002
   0.15366348  0.02419572 -0.05132688       0.003
   0.16763288  0.01613048 -0.05702987       0.003
  -0.16763288  0.20969626  0.07984181       0.003
  -0.15366348  0.20163102  0.07413882       0.003
  -0.13969407  0.19356578  0.06843584       0.003
  -0.12572466  0.18550054  0.06273285       0.003
  -0.11175526  0.17743530  0.05702987       0.003
  -0.09778585  0.16937006  0.05132688       0.003
  -0.08381644  0.16130482  0.04562389       0.003
  -0.06984703  0.15323958  0.03992091       0.003
  -0.05587763  0.14517434  0.03421792       0.002
   0.15366348  0.04032620 -0.05702987       0.002
   0.16763288  0.03226096 -0.06273285       0.003
  -0.16763288  0.22582674  0.07413882       0.003
  -0.15366348  0.21776150  0.06843584       0.003
  -0.13969407  0.20969626  0.06273285       0.003
  -0.12572466  0.20163102  0.05702987       0.003
  -0.11175526  0.19356578  0.05132688       0.003
  -0.09778585  0.18550054  0.04562389       0.003
  -0.08381644  0.17743530  0.03992091       0.003
  -0.06984703  0.16937006  0.03421792       0.002
   0.16763288  0.04839145 -0.06843584       0.002
  -0.16763288  0.24195723  0.06843584       0.003
  -0.15366348  0.23389199  0.06273285       0.003
  -0.13969407  0.22582674  0.05702987       0.003
  -0.12572466  0.21776150  0.05132688       0.003
  -0.11175526  0.20969626  0.04562389       0.003
  -0.09778585  0.20163102  0.03992091       0.003
[...]
 k-point 286 :  -0.4800 0.4400 0.0400  plane waves:   20051
 k-point 287 :  -0.4400 0.4400 0.0400  plane waves:   20051
 k-point 288 :  -0.4000 0.4400 0.0400  plane waves:   20043
 k-point 289 :  -0.4800 0.4800 0.0400  plane waves:   20060
 k-point 290 :  -0.4400 0.4800 0.0400  plane waves:   20054
 k-point 291 :   0.2400 0.1600 0.0800  plane waves:   20010
 k-point 292 :   0.2800 0.1600 0.0800  plane waves:   20020
 k-point 293 :   0.3200 0.1600 0.0800  plane waves:   20007
 k-point 294 :   0.3600 0.1600 0.0800  plane waves:   20009
 k-point 295 :   0.4000 0.1600 0.0800  plane waves:   20020
 k-point 296 :   0.4400 0.1600 0.0800  plane waves:   20014
 k-point 297 :   0.4800 0.1600 0.0800  plane waves:   20023
 k-point 298 :  -0.4800 0.1600 0.0800  plane waves:   20034
 k-point 299 :  -0.4400 0.1600 0.0800  plane waves:   20039
 k-point 300 :   0.2800 0.2000 0.0800  plane waves:   20019
 k-point 301 :   0.3200 0.2000 0.0800  plane waves:   20016
 k-point 302 :   0.3600 0.2000 0.0800  plane waves:   20019
 k-point 303 :   0.4000 0.2000 0.0800  plane waves:   20031
 k-point 304 :   0.4400 0.2000 0.0800  plane waves:   20020
 k-point 305 :   0.4800 0.2000 0.0800  plane waves:   20020
 k-point 306 :  -0.4800 0.2000 0.0800  plane waves:   20023
 k-point 307 :  -0.4400 0.2000 0.0800  plane waves:   20034
 k-point 308 :  -0.4000 0.2000 0.0800  plane waves:   20044
 k-point 309 :  -0.3600 0.2000 0.0800  plane waves:   20033
 k-point 310 :  -0.3200 0.2000 0.0800  plane waves:   20042
 k-point 311 :  -0.2800 0.2000 0.0800  plane waves:   20029
 k-point 312 :  -0.2400 0.2000 0.0800  plane waves:   20029
 k-point 313 :  -0.2000 0.2000 0.0800  plane waves:   20019
 k-point 314 :  -0.1600 0.2000 0.0800  plane waves:   20018
 k-point 315 :  -0.1200 0.2000 0.0800  plane waves:   20015
 k-point 316 :   0.3200 0.2400 0.0800  plane waves:   20035
 k-point 317 :   0.3600 0.2400 0.0800  plane waves:   20038
 k-point 318 :   0.4000 0.2400 0.0800  plane waves:   20039
 k-point 319 :   0.4400 0.2400 0.0800  plane waves:   20025
 k-point 320 :   0.4800 0.2400 0.0800  plane waves:   20032
 k-point 321 :  -0.4800 0.2400 0.0800  plane waves:   20044
 k-point 322 :  -0.4400 0.2400 0.0800  plane waves:   20040
 k-point 323 :  -0.4000 0.2400 0.0800  plane waves:   20035
 k-point 324 :  -0.3600 0.2400 0.0800  plane waves:   20026
 k-point 325 :  -0.3200 0.2400 0.0800  plane waves:   20036
 k-point 326 :  -0.2800 0.2400 0.0800  plane waves:   20033
 k-point 327 :  -0.2400 0.2400 0.0800  plane waves:   20036
 k-point 328 :  -0.2000 0.2400 0.0800  plane waves:   20033
 k-point 329 :  -0.1600 0.2400 0.0800  plane waves:   20038
 k-point 330 :   0.3600 0.2800 0.0800  plane waves:   20037
 k-point 331 :   0.4000 0.2800 0.0800  plane waves:   20035
 k-point 332 :   0.4400 0.2800 0.0800  plane waves:   20047
 k-point 333 :   0.4800 0.2800 0.0800  plane waves:   20032
 k-point 334 :  -0.4800 0.2800 0.0800  plane waves:   20038
 k-point 335 :  -0.4400 0.2800 0.0800  plane waves:   20051
 k-point 336 :  -0.4000 0.2800 0.0800  plane waves:   20051
 k-point 337 :  -0.3600 0.2800 0.0800  plane waves:   20057
 k-point 338 :  -0.3200 0.2800 0.0800  plane waves:   20042
 k-point 339 :  -0.2800 0.2800 0.0800  plane waves:   20037
 k-point 340 :  -0.2400 0.2800 0.0800  plane waves:   20034
 k-point 341 :  -0.2000 0.2800 0.0800  plane waves:   20049
 k-point 342 :   0.4000 0.3200 0.0800  plane waves:   20024
 k-point 343 :   0.4400 0.3200 0.0800  plane waves:   20033
 k-point 344 :   0.4800 0.3200 0.0800  plane waves:   20038
 k-point 345 :  -0.4800 0.3200 0.0800  plane waves:   20038
 k-point 346 :  -0.4400 0.3200 0.0800  plane waves:   20037
 k-point 347 :  -0.4000 0.3200 0.0800  plane waves:   20042
 k-point 348 :  -0.3600 0.3200 0.0800  plane waves:   20056
 k-point 349 :  -0.3200 0.3200 0.0800  plane waves:   20050
 k-point 350 :  -0.2800 0.3200 0.0800  plane waves:   20041
 k-point 351 :  -0.2400 0.3200 0.0800  plane waves:   20025
 k-point 352 :   0.4400 0.3600 0.0800  plane waves:   20030
 k-point 353 :   0.4800 0.3600 0.0800  plane waves:   20039
 k-point 354 :  -0.4800 0.3600 0.0800  plane waves:   20037
 k-point 355 :  -0.4400 0.3600 0.0800  plane waves:   20027
 k-point 356 :  -0.4000 0.3600 0.0800  plane waves:   20040
 k-point 357 :  -0.3600 0.3600 0.0800  plane waves:   20048
 k-point 358 :  -0.3200 0.3600 0.0800  plane waves:   20048
 k-point 359 :  -0.2800 0.3600 0.0800  plane waves:   20044
 k-point 360 :   0.4800 0.4000 0.0800  plane waves:   20042
 k-point 361 :  -0.4800 0.4000 0.0800  plane waves:   20030
 k-point 362 :  -0.4400 0.4000 0.0800  plane waves:   20043
 k-point 363 :  -0.4000 0.4000 0.0800  plane waves:   20046
 k-point 364 :  -0.3600 0.4000 0.0800  plane waves:   20047
 k-point 365 :  -0.3200 0.4000 0.0800  plane waves:   20046
 k-point 366 :  -0.4800 0.4400 0.0800  plane waves:   20043
 k-point 367 :  -0.4400 0.4400 0.0800  plane waves:   20040
 k-point 368 :  -0.4000 0.4400 0.0800  plane waves:   20045
 k-point 369 :  -0.3600 0.4400 0.0800  plane waves:   20053
 k-point 370 :  -0.4400 0.4800 0.0800  plane waves:   20051
 k-point 371 :  -0.4000 0.4800 0.0800  plane waves:   20043
 k-point 372 :   0.3600 0.2400 0.1200  plane waves:   20026
 k-point 373 :   0.4000 0.2400 0.1200  plane waves:   20036
 k-point 374 :   0.4400 0.2400 0.1200  plane waves:   20043
 k-point 375 :   0.4800 0.2400 0.1200  plane waves:   20024
 k-point 376 :  -0.4800 0.2400 0.1200  plane waves:   20032
 k-point 377 :  -0.4400 0.2400 0.1200  plane waves:   20037
 k-point 378 :  -0.4000 0.2400 0.1200  plane waves:   20040
 k-point 379 :   0.4000 0.2800 0.1200  plane waves:   20040
 k-point 380 :   0.4400 0.2800 0.1200  plane waves:   20039
 k-point 381 :   0.4800 0.2800 0.1200  plane waves:   20038
 k-point 382 :  -0.4800 0.2800 0.1200  plane waves:   20035
 k-point 383 :  -0.4400 0.2800 0.1200  plane waves:   20054
 k-point 384 :  -0.4000 0.2800 0.1200  plane waves:   20046
 k-point 385 :  -0.3600 0.2800 0.1200  plane waves:   20035
 k-point 386 :  -0.3200 0.2800 0.1200  plane waves:   20038
 k-point 387 :  -0.2800 0.2800 0.1200  plane waves:   20051
 k-point 388 :  -0.2400 0.2800 0.1200  plane waves:   20042
 k-point 389 :  -0.2000 0.2800 0.1200  plane waves:   20044
 k-point 390 :  -0.1600 0.2800 0.1200  plane waves:   20045
 k-point 391 :   0.4400 0.3200 0.1200  plane waves:   20021
 k-point 392 :   0.4800 0.3200 0.1200  plane waves:   20037
 k-point 393 :  -0.4800 0.3200 0.1200  plane waves:   20026
 k-point 394 :  -0.4400 0.3200 0.1200  plane waves:   20030
 k-point 395 :  -0.4000 0.3200 0.1200  plane waves:   20051
 k-point 396 :  -0.3600 0.3200 0.1200  plane waves:   20053
 k-point 397 :  -0.3200 0.3200 0.1200  plane waves:   20049
 k-point 398 :  -0.2800 0.3200 0.1200  plane waves:   20037
 k-point 399 :  -0.2400 0.3200 0.1200  plane waves:   20040
 k-point 400 :  -0.2000 0.3200 0.1200  plane waves:   20043
 k-point 401 :   0.4800 0.3600 0.1200  plane waves:   20023
 k-point 402 :  -0.4800 0.3600 0.1200  plane waves:   20037
 k-point 403 :  -0.4400 0.3600 0.1200  plane waves:   20023
 k-point 404 :  -0.4000 0.3600 0.1200  plane waves:   20043
 k-point 405 :  -0.3600 0.3600 0.1200  plane waves:   20040
 k-point 406 :  -0.3200 0.3600 0.1200  plane waves:   20044
 k-point 407 :  -0.2800 0.3600 0.1200  plane waves:   20044
 k-point 408 :  -0.2400 0.3600 0.1200  plane waves:   20029
 k-point 409 :  -0.4800 0.4000 0.1200  plane waves:   20033
 k-point 410 :  -0.4400 0.4000 0.1200  plane waves:   20025
 k-point 411 :  -0.4000 0.4000 0.1200  plane waves:   20039
 k-point 412 :  -0.3600 0.4000 0.1200  plane waves:   20039
 k-point 413 :  -0.3200 0.4000 0.1200  plane waves:   20036
 k-point 414 :  -0.2800 0.4000 0.1200  plane waves:   20046
 k-point 415 :  -0.4400 0.4400 0.1200  plane waves:   20038
 k-point 416 :  -0.4000 0.4400 0.1200  plane waves:   20039
 k-point 417 :  -0.3600 0.4400 0.1200  plane waves:   20047
 k-point 418 :  -0.3200 0.4400 0.1200  plane waves:   20052
 k-point 419 :  -0.4000 0.4800 0.1200  plane waves:   20054
 k-point 420 :  -0.3600 0.4800 0.1200  plane waves:   20046
 k-point 421 :   0.4800 0.3200 0.1600  plane waves:   20044
 k-point 422 :  -0.4800 0.3200 0.1600  plane waves:   20053
 k-point 423 :  -0.4400 0.3200 0.1600  plane waves:   20047
 k-point 424 :  -0.4000 0.3200 0.1600  plane waves:   20047
 k-point 425 :  -0.3600 0.3200 0.1600  plane waves:   20055
 k-point 426 :  -0.4800 0.3600 0.1600  plane waves:   20037
 k-point 427 :  -0.4400 0.3600 0.1600  plane waves:   20033
 k-point 428 :  -0.4000 0.3600 0.1600  plane waves:   20034
 k-point 429 :  -0.3600 0.3600 0.1600  plane waves:   20052
 k-point 430 :  -0.3200 0.3600 0.1600  plane waves:   20049
 k-point 431 :  -0.2800 0.3600 0.1600  plane waves:   20041
 k-point 432 :  -0.2400 0.3600 0.1600  plane waves:   20030
 k-point 433 :  -0.2000 0.3600 0.1600  plane waves:   20031
 k-point 434 :  -0.4400 0.4000 0.1600  plane waves:   20030
 k-point 435 :  -0.4000 0.4000 0.1600  plane waves:   20044
 k-point 436 :  -0.3600 0.4000 0.1600  plane waves:   20040
 k-point 437 :  -0.3200 0.4000 0.1600  plane waves:   20044
 k-point 438 :  -0.2800 0.4000 0.1600  plane waves:   20053
 k-point 439 :  -0.2400 0.4000 0.1600  plane waves:   20041
 k-point 440 :  -0.4000 0.4400 0.1600  plane waves:   20034
 k-point 441 :  -0.3600 0.4400 0.1600  plane waves:   20038
 k-point 442 :  -0.3200 0.4400 0.1600  plane waves:   20044
 k-point 443 :  -0.2800 0.4400 0.1600  plane waves:   20043
 k-point 444 :  -0.3600 0.4800 0.1600  plane waves:   20043
 k-point 445 :  -0.3200 0.4800 0.1600  plane waves:   20048
 k-point 446 :  -0.4000 0.4000 0.2000  plane waves:   20040
 k-point 447 :  -0.3600 0.4000 0.2000  plane waves:   20039
 k-point 448 :  -0.3200 0.4000 0.2000  plane waves:   20047
 k-point 449 :  -0.3600 0.4400 0.2000  plane waves:   20037
 k-point 450 :  -0.3200 0.4400 0.2000  plane waves:   20032
 k-point 451 :  -0.2800 0.4400 0.2000  plane waves:   20052
 k-point 452 :  -0.2400 0.4400 0.2000  plane waves:   20061
 k-point 453 :  -0.3200 0.4800 0.2000  plane waves:   20034
 k-point 454 :  -0.2800 0.4800 0.2000  plane waves:   20036
 k-point 455 :  -0.2800 0.4800 0.2400  plane waves:   20043

 maximum and minimum number of plane-waves per node :     10065     9950

 maximum number of plane-waves:     20086
 maximum index in each direction: 
   IXMAX=   19   IYMAX=   18   IZMAX=   18
   IXMIN=  -19   IYMIN=  -19   IZMIN=  -19


 parallel 3D FFT for wavefunctions:
    minimum data exchange during FFTs selected (reduces bandwidth)
 parallel 3D FFT for charge:
    minimum data exchange during FFTs selected (reduces bandwidth)


 total amount of memory used by VASP MPI-rank0   768912. kBytes
=======================================================================

   base      :      30000. kBytes
   nonl-proj :     293253. kBytes
   fftplans  :      32718. kBytes
   grid      :      46281. kBytes
   one-center:          3. kBytes
   wavefun   :     366657. kBytes

     INWAV:  cpu time      0.6623: real time      0.6624
 Broyden mixing: mesh for mixing (old mesh)
   NGX = 37   NGY = 37   NGZ = 37
  (NGX  =120   NGY  =120   NGZ  =120)
  gives a total of  50653 points

 charge density for first step will be calculated from the start-wavefunctions


--------------------------------------------------------------------------------------------------------


 Maximum index for augmentation-charges         3713 (set IRDMAX)


--------------------------------------------------------------------------------------------------------


 initial charge from wavefunction
 First call to EWALD:  gamma=   0.172
 Maximum number of real-space cells 3x 3x 3
 Maximum number of reciprocal cells 3x 3x 3

    FEWALD:  cpu time      0.0005: real time      0.0005


--------------------------------------- Ionic step        1  -------------------------------------------




--------------------------------------- Iteration      1(   1)  ---------------------------------------


    POTLOK:  cpu time      0.2742: real time      0.2742
    SETDIJ:  cpu time      0.0008: real time      0.0008
     EDDAV:  cpu time     20.2358: real time     20.2378
 BZINTS: Fermi energy:   -3.810028;    3.000000 electrons
         Band energy:-0.223083E+02;  BLOECHL correction:   -0.000006
       DOS:  cpu time      0.0207: real time      0.0207
    CHARGE:  cpu time      0.7329: real time      0.7329
    MIXING:  cpu time      0.0072: real time      0.0073
    --------------------------------------------
      LOOP:  cpu time     21.2716: real time     21.2736

 eigenvalue-minimisations  :  5248
 total energy-change (2. order) :-0.4288575E+00  (-0.1351559E+01)
 number of electron       2.9999999 magnetization 
 augmentation part       -0.0844008 magnetization 

 Broyden mixing:
  rms(total) = 0.18804E+00    rms(broyden)= 0.18804E+00
  rms(prec ) = 0.34666E+00
  weight for this iteration     100.00

 Free energy of the ion-electron system (eV)
  ---------------------------------------------------
  alpha Z        PSCENC =        -0.00304572
  Ewald energy   TEWEN  =       -18.11518696
  -Hartree energ DENC   =       -17.13715428
  -exchange      EXHF   =         0.00000000
  -V(xc)+E(xc)   XCENC  =       -28.46240748
  PAW double counting   =        59.31657603      -27.25747861
  entropy T*S    EENTRO =         0.00000000
  eigenvalues    EBANDS =       -22.30831479
  atomic energy  EATOM  =        53.53815432
  Solvation  Ediel_sol  =         0.00000000
  ---------------------------------------------------
  free energy    TOTEN  =        -0.42885748 eV

  energy without entropy =       -0.42885748  energy(sigma->0) =       -0.42885748


--------------------------------------------------------------------------------------------------------




--------------------------------------- Iteration      1(   2)  ---------------------------------------


    POTLOK:  cpu time      0.2761: real time      0.2761
    SETDIJ:  cpu time      0.0008: real time      0.0008
     EDDAV:  cpu time     18.5740: real time     18.5759
 BZINTS: Fermi energy:   -3.393840;    3.000000 electrons
         Band energy:-0.208102E+02;  BLOECHL correction:   -0.000006
       DOS:  cpu time      0.0207: real time      0.0207
    CHARGE:  cpu time      0.7657: real time      0.7658
    MIXING:  cpu time      0.0074: real time      0.0074
    --------------------------------------------
      LOOP:  cpu time     19.6447: real time     19.6467

 eigenvalue-minimisations  :  4581
 total energy-change (2. order) : 0.2328656E+00  (-0.2808599E-01)
 number of electron       2.9999999 magnetization 
 augmentation part       -0.0781859 magnetization 

 Broyden mixing:
  rms(total) = 0.12072E+00    rms(broyden)= 0.12072E+00
  rms(prec ) = 0.22482E+00
  weight for this iteration     100.00

 eigenvalues of (default mixing * dielectric matrix)
  average eigenvalue GAMMA=   1.4910
  1.4910

 Free energy of the ion-electron system (eV)
  ---------------------------------------------------
  alpha Z        PSCENC =        -0.00304572
  Ewald energy   TEWEN  =       -18.11518696
  -Hartree energ DENC   =       -18.41781180
  -exchange      EXHF   =         0.00000000
  -V(xc)+E(xc)   XCENC  =       -28.39374690
  PAW double counting   =        56.88075075      -24.87487363
  entropy T*S    EENTRO =         0.00000000
  eigenvalues    EBANDS =       -20.81023195
  atomic energy  EATOM  =        53.53815432
  Solvation  Ediel_sol  =         0.00000000
  ---------------------------------------------------
  free energy    TOTEN  =        -0.19599187 eV

  energy without entropy =       -0.19599187  energy(sigma->0) =       -0.19599187


--------------------------------------------------------------------------------------------------------




--------------------------------------- Iteration      1(   3)  ---------------------------------------


    POTLOK:  cpu time      0.2781: real time      0.2781
    SETDIJ:  cpu time      0.0008: real time      0.0008
     EDDAV:  cpu time     18.6630: real time     18.6651
 BZINTS: Fermi energy:   -2.781186;    3.000000 electrons
         Band energy:-0.185769E+02;  BLOECHL correction:   -0.000013
       DOS:  cpu time      0.0208: real time      0.0208
    CHARGE:  cpu time      0.7600: real time      0.7600
    MIXING:  cpu time      0.0075: real time      0.0075
    --------------------------------------------
      LOOP:  cpu time     19.7302: real time     19.7323

 eigenvalue-minimisations  :  4550
 total energy-change (2. order) : 0.1789567E+00  (-0.2675173E-01)
 number of electron       2.9999999 magnetization 
 augmentation part       -0.0706999 magnetization 

 Broyden mixing:
  rms(total) = 0.29379E-01    rms(broyden)= 0.29379E-01
  rms(prec ) = 0.58967E-01
  weight for this iteration     100.00

 eigenvalues of (default mixing * dielectric matrix)
  average eigenvalue GAMMA=   1.5785
  1.1292  2.0277

 Free energy of the ion-electron system (eV)
  ---------------------------------------------------
  alpha Z        PSCENC =        -0.00304572
  Ewald energy   TEWEN  =       -18.11518696
  -Hartree energ DENC   =       -20.57964439
  -exchange      EXHF   =         0.00000000
  -V(xc)+E(xc)   XCENC  =       -28.21340944
  PAW double counting   =        48.77402827      -16.84102638
  entropy T*S    EENTRO =         0.00000000
  eigenvalues    EBANDS =       -18.57690487
  atomic energy  EATOM  =        53.53815432
  Solvation  Ediel_sol  =         0.00000000
  ---------------------------------------------------
  free energy    TOTEN  =        -0.01703517 eV

  energy without entropy =       -0.01703517  energy(sigma->0) =       -0.01703517


--------------------------------------------------------------------------------------------------------




--------------------------------------- Iteration      1(   4)  ---------------------------------------


    POTLOK:  cpu time      0.2880: real time      0.2881
    SETDIJ:  cpu time      0.0008: real time      0.0008
     EDDAV:  cpu time     22.3801: real time     22.3827
 BZINTS: Fermi energy:   -2.664325;    3.000000 electrons
         Band energy:-0.181521E+02;  BLOECHL correction:   -0.000015
       DOS:  cpu time      0.0213: real time      0.0213
    CHARGE:  cpu time      0.7656: real time      0.7657
    MIXING:  cpu time      0.0079: real time      0.0079
    --------------------------------------------
      LOOP:  cpu time     23.4639: real time     23.4665

 eigenvalue-minimisations  :  5729
 total energy-change (2. order) : 0.9978493E-02  (-0.1742063E-02)
 number of electron       2.9999999 magnetization 
 augmentation part       -0.0681106 magnetization 

 Broyden mixing:
  rms(total) = 0.37832E-01    rms(broyden)= 0.37832E-01
  rms(prec ) = 0.49464E-01
  weight for this iteration     100.00

 eigenvalues of (default mixing * dielectric matrix)
  average eigenvalue GAMMA=   1.6870
  2.2367  1.1295  1.6946

 Free energy of the ion-electron system (eV)
  ---------------------------------------------------
  alpha Z        PSCENC =        -0.00304572
  Ewald energy   TEWEN  =       -18.11518696
  -Hartree energ DENC   =       -21.04953752
  -exchange      EXHF   =         0.00000000
  -V(xc)+E(xc)   XCENC  =       -28.16036684
  PAW double counting   =        50.14822767      -18.21318377
  entropy T*S    EENTRO =         0.00000000
  eigenvalues    EBANDS =       -18.15211787
  atomic energy  EATOM  =        53.53815432
  Solvation  Ediel_sol  =         0.00000000
  ---------------------------------------------------
  free energy    TOTEN  =        -0.00705668 eV

  energy without entropy =       -0.00705668  energy(sigma->0) =       -0.00705668


--------------------------------------------------------------------------------------------------------




--------------------------------------- Iteration      1(   5)  ---------------------------------------


    POTLOK:  cpu time      0.2848: real time      0.2849
    SETDIJ:  cpu time      0.0008: real time      0.0008
