 vasp.6.4.2 20Jul23 (build Oct 18 2023 12:49:41) complex                         
 executed on             LinuxGNU date 2025.04.11  08:30:51
 running    2 mpi-ranks, with    1 threads/rank, on    1 nodes
 distrk:  each k-point on    2 cores,    1 groups
 distr:  one band on NCORE=   2 cores,    1 groups


--------------------------------------------------------------------------------------------------------


 INCAR:
   SYSTEM = Al atom
   ISMEAR = -5
   ENCUT = 400
   LCHARG = .FALSE.
   NCORE = 2
   NSIM = 1

 POTCAR:    PAW_PBE Al 04Jan2001                  
 POTCAR:    PAW_PBE Al 04Jan2001                  
   SHA256 =  17880443556af62b473fe41b62a467bd001ad55d2cabe504a3f22e34d4e9db96 Al/POTCAR             
   COPYR  = (c) Copyright 04Jan2001 Georg Kresse                                                    
   COPYR  = This file is part of the software VASP. Any use, copying, and all other rights are regul
   COPYR  = If you do not have a valid VASP license, you may not use, copy or distribute this file. 
   VRHFIN =Al: s2p1                                                                                 
   LEXCH  = PE                                                                                      
   EATOM  =    53.5387 eV,    3.9350 Ry                                                             
                                                                                                    
   TITEL  = PAW_PBE Al 04Jan2001                                                                    
   LULTRA =        F    use ultrasoft PP ?                                                          
   IUNSCR =        1    unscreen: 0-lin 1-nonlin 2-no                                               
   RPACOR =    1.500    partial core radius                                                         
   POMASS =   26.981; ZVAL   =    3.000    mass and valenz                                          
   RCORE  =    1.900    outmost cutoff radius                                                       
   RWIGS  =    2.650; RWIGS  =    1.402    wigner-seitz radius (au A)                               
   ENMAX  =  240.300; ENMIN  =  180.225 eV                                                          
   ICORE  =        2    local potential                                                             
   LCOR   =        T    correct aug charges                                                         
   LPAW   =        T    paw PP                                                                      
   EAUG   =  291.052                                                                                
   DEXC   =    0.000                                                                                
   RMAX   =    1.939    core radius for proj-oper                                                   
   RAUG   =    1.300    factor for augmentation sphere                                              
   RDEP   =    1.966    radius for radial grids                                                     
   RDEPT  =    1.856    core radius for aug-charge                                                  
                                                                                                    
   Atomic configuration                                                                             
    6 entries                                                                                       
     n  l   j            E        occ.                                                              
     1  0  0.50     -1511.1048   2.0000                                                             
     2  0  0.50      -108.1629   2.0000                                                             
     2  1  1.50       -69.6402   6.0000                                                             
     3  0  0.50        -7.7528   2.0000                                                             
     3  1  1.50        -2.7121   1.0000                                                             
     3  2  2.50        -2.7212   0.0000                                                             
   Description                                                                                      
     l       E           TYP  RCUT    TYP  RCUT                                                     
     0     -7.7528455     23  1.900                                                                 
     0     -3.3096929     23  1.900                                                                 
     1     -2.7120682     23  1.900                                                                 
     1     13.6058260     23  1.900                                                                 
     2     -2.7211652      7  1.900                                                                 
  local pseudopotential read in
  partial core-charges read in
  partial kinetic energy density read in
  atomic valenz-charges read in
  non local Contribution for L=           0  read in
    real space projection operators read in
  non local Contribution for L=           0  read in
    real space projection operators read in
  non local Contribution for L=           1  read in
    real space projection operators read in
  non local Contribution for L=           1  read in
    real space projection operators read in
    PAW grid and wavefunctions read in

   number of l-projection  operators is LMAX  =           4
   number of lm-projection operators is LMMAX =           8

  PAW_PBE Al 04Jan2001                  :
 energy of atom  1       EATOM=  -53.5387
 kinetic energy error for atom=    0.0005 (will be added to EATOM!!)


 POSCAR: Al
  positions in cartesian coordinates
  No initial velocities read in
 exchange correlation table for  LEXCH =        8
   RHO(1)=    0.500       N(1)  =     2000
   RHO(2)=  100.500       N(2)  =     4000



--------------------------------------------------------------------------------------------------------


 ion  position               nearest neighbor table
   1  0.000  0.000  0.000-

  LATTYP: Found a face centered cubic cell.
 ALAT       =     3.3080306403
  
  Lattice vectors:
  
 A1 = (   2.3391308981,   0.0000000000,   0.0000000000)
 A2 = (   1.1695654491,   2.0257467806,   0.0000000000)
 A3 = (   1.1695654491,   0.6752489269,   1.9098923807)


Analysis of symmetry for initial positions (statically):
=====================================================================
 Subroutine PRICEL returns:
 Original cell was already a primitive cell.
 

 Routine SETGRP: Setting up the symmetry group for a 
 face centered cubic supercell.


 Subroutine GETGRP returns: Found 48 space group operations
 (whereof 48 operations were pure point group operations)
 out of a pool of 48 trial point group operations.


The static configuration has the point symmetry O_h .


Analysis of symmetry for dynamics (positions and initial velocities):
=====================================================================
 Subroutine PRICEL returns:
 Original cell was already a primitive cell.
 

 Routine SETGRP: Setting up the symmetry group for a 
 face centered cubic supercell.


 Subroutine GETGRP returns: Found 48 space group operations
 (whereof 48 operations were pure point group operations)
 out of a pool of 48 trial point group operations.


The dynamic configuration has the point symmetry O_h .


 Subroutine INISYM returns: Found 48 space group operations
 (whereof 48 operations are pure point group operations),
 and found     1 'primitive' translations


----------------------------------------------------------------------------------------

                                     Primitive cell                                     

  volume of cell :       9.0500

  direct lattice vectors                    reciprocal lattice vectors
     2.339130898  0.000000000  0.000000000     0.427509209 -0.246822557 -0.174529904
     1.169565449  2.025746781  0.000000000     0.000000000  0.493645114 -0.174529904
     1.169565449  0.675248927  1.909892381     0.000000000  0.000000000  0.523589711

  length of vectors
     2.339130898  2.339130898  2.339130898     0.523589711  0.523589711  0.523589711

  position of ions in fractional coordinates (direct lattice)
     0.000000000  0.000000000  0.000000000

  ion indices of the primitive-cell ions
   primitive index   ion index
                 1           1

----------------------------------------------------------------------------------------



 KPOINTS: Al Atom   # System label                

Automatic generation of k-mesh.
 Grid dimensions read from file:
 generate k-points for:   25   25   25

 Generating k-lattice:

  Cartesian coordinates                     Fractional coordinates (reciprocal lattice)
     0.017100368 -0.009872902 -0.006981196     0.040000000  0.000000000  0.000000000
     0.000000000  0.019745805 -0.006981196     0.000000000  0.040000000  0.000000000
     0.000000000  0.000000000  0.020943588     0.000000000  0.000000000  0.040000000

  Length of vectors
     0.020943588  0.020943588  0.020943588

  Shift w.r.t. Gamma in fractional coordinates (k-lattice)
     0.000000000  0.000000000  0.000000000

 TETIRR: Found   2119 inequivalent tetrahedra from    93750
 
 Subroutine IBZKPT returns following result:
 ===========================================
 
 Found    455 irreducible k-points:
 
 Following reciprocal coordinates:
            Coordinates               Weight
  0.000000  0.000000  0.000000      1.000000
  0.040000  0.000000  0.000000      8.000000
  0.080000  0.000000  0.000000      8.000000
  0.120000  0.000000  0.000000      8.000000
  0.160000  0.000000  0.000000      8.000000
  0.200000  0.000000  0.000000      8.000000
  0.240000  0.000000  0.000000      8.000000
  0.280000  0.000000  0.000000      8.000000
  0.320000  0.000000  0.000000      8.000000
  0.360000  0.000000  0.000000      8.000000
  0.400000  0.000000  0.000000      8.000000
  0.440000  0.000000  0.000000      8.000000
  0.480000  0.000000  0.000000      8.000000
  0.040000  0.040000  0.000000      6.000000
  0.080000  0.040000  0.000000     24.000000
  0.120000  0.040000  0.000000     24.000000
  0.160000  0.040000  0.000000     24.000000
  0.200000  0.040000  0.000000     24.000000
  0.240000  0.040000  0.000000     24.000000
  0.280000  0.040000  0.000000     24.000000
  0.320000  0.040000  0.000000     24.000000
  0.360000  0.040000  0.000000     24.000000
  0.400000  0.040000  0.000000     24.000000
  0.440000  0.040000  0.000000     24.000000
  0.480000  0.040000  0.000000     24.000000
 -0.480000  0.040000  0.000000     24.000000
 -0.440000  0.040000  0.000000     24.000000
 -0.400000  0.040000  0.000000     24.000000
 -0.360000  0.040000  0.000000     24.000000
 -0.320000  0.040000  0.000000     24.000000
 -0.280000  0.040000  0.000000     24.000000
 -0.240000  0.040000  0.000000     24.000000
 -0.200000  0.040000  0.000000     24.000000
 -0.160000  0.040000  0.000000     24.000000
 -0.120000  0.040000  0.000000     24.000000
 -0.080000  0.040000  0.000000     24.000000
 -0.040000  0.040000  0.000000     12.000000
  0.080000  0.080000  0.000000      6.000000
  0.120000  0.080000  0.000000     24.000000
  0.160000  0.080000  0.000000     24.000000
  0.200000  0.080000  0.000000     24.000000
  0.240000  0.080000  0.000000     24.000000
  0.280000  0.080000  0.000000     24.000000
  0.320000  0.080000  0.000000     24.000000
  0.360000  0.080000  0.000000     24.000000
  0.400000  0.080000  0.000000     24.000000
  0.440000  0.080000  0.000000     24.000000
  0.480000  0.080000  0.000000     24.000000
 -0.480000  0.080000  0.000000     24.000000
 -0.440000  0.080000  0.000000     24.000000
 -0.400000  0.080000  0.000000     24.000000
 -0.360000  0.080000  0.000000     24.000000
 -0.320000  0.080000  0.000000     24.000000
 -0.280000  0.080000  0.000000     24.000000
 -0.240000  0.080000  0.000000     24.000000
 -0.200000  0.080000  0.000000     24.000000
 -0.160000  0.080000  0.000000     24.000000
 -0.120000  0.080000  0.000000     24.000000
 -0.080000  0.080000  0.000000     12.000000
  0.120000  0.120000  0.000000      6.000000
  0.160000  0.120000  0.000000     24.000000
  0.200000  0.120000  0.000000     24.000000
  0.240000  0.120000  0.000000     24.000000
  0.280000  0.120000  0.000000     24.000000
  0.320000  0.120000  0.000000     24.000000
  0.360000  0.120000  0.000000     24.000000
  0.400000  0.120000  0.000000     24.000000
  0.440000  0.120000  0.000000     24.000000
  0.480000  0.120000  0.000000     24.000000
 -0.480000  0.120000  0.000000     24.000000
 -0.440000  0.120000  0.000000     24.000000
 -0.400000  0.120000  0.000000     24.000000
 -0.360000  0.120000  0.000000     24.000000
 -0.320000  0.120000  0.000000     24.000000
 -0.280000  0.120000  0.000000     24.000000
 -0.240000  0.120000  0.000000     24.000000
 -0.200000  0.120000  0.000000     24.000000
 -0.160000  0.120000  0.000000     24.000000
 -0.120000  0.120000  0.000000     12.000000
  0.160000  0.160000  0.000000      6.000000
  0.200000  0.160000  0.000000     24.000000
  0.240000  0.160000  0.000000     24.000000
  0.280000  0.160000  0.000000     24.000000
  0.320000  0.160000  0.000000     24.000000
  0.360000  0.160000  0.000000     24.000000
  0.400000  0.160000  0.000000     24.000000
  0.440000  0.160000  0.000000     24.000000
  0.480000  0.160000  0.000000     24.000000
 -0.480000  0.160000  0.000000     24.000000
 -0.440000  0.160000  0.000000     24.000000
 -0.400000  0.160000  0.000000     24.000000
 -0.360000  0.160000  0.000000     24.000000
 -0.320000  0.160000  0.000000     24.000000
 -0.280000  0.160000  0.000000     24.000000
 -0.240000  0.160000  0.000000     24.000000
 -0.200000  0.160000  0.000000     24.000000
 -0.160000  0.160000  0.000000     12.000000
  0.200000  0.200000  0.000000      6.000000
  0.240000  0.200000  0.000000     24.000000
  0.280000  0.200000  0.000000     24.000000
  0.320000  0.200000  0.000000     24.000000
  0.360000  0.200000  0.000000     24.000000
  0.400000  0.200000  0.000000     24.000000
  0.440000  0.200000  0.000000     24.000000
  0.480000  0.200000  0.000000     24.000000
 -0.480000  0.200000  0.000000     24.000000
 -0.440000  0.200000  0.000000     24.000000
 -0.400000  0.200000  0.000000     24.000000
 -0.360000  0.200000  0.000000     24.000000
 -0.320000  0.200000  0.000000     24.000000
 -0.280000  0.200000  0.000000     24.000000
 -0.240000  0.200000  0.000000     24.000000
 -0.200000  0.200000  0.000000     12.000000
  0.240000  0.240000  0.000000      6.000000
  0.280000  0.240000  0.000000     24.000000
  0.320000  0.240000  0.000000     24.000000
  0.360000  0.240000  0.000000     24.000000
  0.400000  0.240000  0.000000     24.000000
  0.440000  0.240000  0.000000     24.000000
  0.480000  0.240000  0.000000     24.000000
 -0.480000  0.240000  0.000000     24.000000
 -0.440000  0.240000  0.000000     24.000000
 -0.400000  0.240000  0.000000     24.000000
 -0.360000  0.240000  0.000000     24.000000
 -0.320000  0.240000  0.000000     24.000000
 -0.280000  0.240000  0.000000     24.000000
 -0.240000  0.240000  0.000000     12.000000
  0.280000  0.280000  0.000000      6.000000
  0.320000  0.280000  0.000000     24.000000
  0.360000  0.280000  0.000000     24.000000
  0.400000  0.280000  0.000000     24.000000
  0.440000  0.280000  0.000000     24.000000
  0.480000  0.280000  0.000000     24.000000
 -0.480000  0.280000  0.000000     24.000000
 -0.440000  0.280000  0.000000     24.000000
 -0.400000  0.280000  0.000000     24.000000
 -0.360000  0.280000  0.000000     24.000000
 -0.320000  0.280000  0.000000     24.000000
 -0.280000  0.280000  0.000000     12.000000
  0.320000  0.320000  0.000000      6.000000
  0.360000  0.320000  0.000000     24.000000
  0.400000  0.320000  0.000000     24.000000
  0.440000  0.320000  0.000000     24.000000
  0.480000  0.320000  0.000000     24.000000
 -0.480000  0.320000  0.000000     24.000000
 -0.440000  0.320000  0.000000     24.000000
 -0.400000  0.320000  0.000000     24.000000
 -0.360000  0.320000  0.000000     24.000000
 -0.320000  0.320000  0.000000     12.000000
  0.360000  0.360000  0.000000      6.000000
  0.400000  0.360000  0.000000     24.000000
  0.440000  0.360000  0.000000     24.000000
  0.480000  0.360000  0.000000     24.000000
 -0.480000  0.360000  0.000000     24.000000
 -0.440000  0.360000  0.000000     24.000000
 -0.400000  0.360000  0.000000     24.000000
 -0.360000  0.360000  0.000000     12.000000
  0.400000  0.400000  0.000000      6.000000
  0.440000  0.400000  0.000000     24.000000
  0.480000  0.400000  0.000000     24.000000
 -0.480000  0.400000  0.000000     24.000000
 -0.440000  0.400000  0.000000     24.000000
 -0.400000  0.400000  0.000000     12.000000
  0.440000  0.440000  0.000000      6.000000
  0.480000  0.440000  0.000000     24.000000
 -0.480000  0.440000  0.000000     24.000000
 -0.440000  0.440000  0.000000     12.000000
  0.480000  0.480000  0.000000      6.000000
 -0.480000  0.480000  0.000000     12.000000
  0.120000  0.080000  0.040000     24.000000
  0.160000  0.080000  0.040000     48.000000
  0.200000  0.080000  0.040000     48.000000
  0.240000  0.080000  0.040000     48.000000
  0.280000  0.080000  0.040000     48.000000
  0.320000  0.080000  0.040000     48.000000
  0.360000  0.080000  0.040000     48.000000
  0.400000  0.080000  0.040000     48.000000
  0.440000  0.080000  0.040000     48.000000
  0.480000  0.080000  0.040000     48.000000
 -0.480000  0.080000  0.040000     48.000000
  0.160000  0.120000  0.040000     24.000000
  0.200000  0.120000  0.040000     48.000000
  0.240000  0.120000  0.040000     48.000000
  0.280000  0.120000  0.040000     48.000000
  0.320000  0.120000  0.040000     48.000000
  0.360000  0.120000  0.040000     48.000000
  0.400000  0.120000  0.040000     48.000000
  0.440000  0.120000  0.040000     48.000000
  0.480000  0.120000  0.040000     48.000000
 -0.480000  0.120000  0.040000     48.000000
 -0.440000  0.120000  0.040000     48.000000
 -0.400000  0.120000  0.040000     48.000000
 -0.360000  0.120000  0.040000     48.000000
 -0.320000  0.120000  0.040000     48.000000
 -0.280000  0.120000  0.040000     48.000000
 -0.240000  0.120000  0.040000     48.000000
 -0.200000  0.120000  0.040000     48.000000
 -0.160000  0.120000  0.040000     48.000000
 -0.120000  0.120000  0.040000     48.000000
 -0.080000  0.120000  0.040000     24.000000
  0.200000  0.160000  0.040000     24.000000
  0.240000  0.160000  0.040000     48.000000
  0.280000  0.160000  0.040000     48.000000
  0.320000  0.160000  0.040000     48.000000
  0.360000  0.160000  0.040000     48.000000
  0.400000  0.160000  0.040000     48.000000
  0.440000  0.160000  0.040000     48.000000
  0.480000  0.160000  0.040000     48.000000
 -0.480000  0.160000  0.040000     48.000000
 -0.440000  0.160000  0.040000     48.000000
 -0.400000  0.160000  0.040000     48.000000
 -0.360000  0.160000  0.040000     48.000000
 -0.320000  0.160000  0.040000     48.000000
 -0.280000  0.160000  0.040000     48.000000
 -0.240000  0.160000  0.040000     48.000000
 -0.200000  0.160000  0.040000     48.000000
 -0.160000  0.160000  0.040000     48.000000
 -0.120000  0.160000  0.040000     24.000000
  0.240000  0.200000  0.040000     24.000000
  0.280000  0.200000  0.040000     48.000000
  0.320000  0.200000  0.040000     48.000000
  0.360000  0.200000  0.040000     48.000000
  0.400000  0.200000  0.040000     48.000000
  0.440000  0.200000  0.040000     48.000000
  0.480000  0.200000  0.040000     48.000000
 -0.480000  0.200000  0.040000     48.000000
 -0.440000  0.200000  0.040000     48.000000
 -0.400000  0.200000  0.040000     48.000000
 -0.360000  0.200000  0.040000     48.000000
 -0.320000  0.200000  0.040000     48.000000
 -0.280000  0.200000  0.040000     48.000000
 -0.240000  0.200000  0.040000     48.000000
 -0.200000  0.200000  0.040000     48.000000
 -0.160000  0.200000  0.040000     24.000000
  0.280000  0.240000  0.040000     24.000000
  0.320000  0.240000  0.040000     48.000000
  0.360000  0.240000  0.040000     48.000000
  0.400000  0.240000  0.040000     48.000000
  0.440000  0.240000  0.040000     48.000000
  0.480000  0.240000  0.040000     48.000000
 -0.480000  0.240000  0.040000     48.000000
 -0.440000  0.240000  0.040000     48.000000
 -0.400000  0.240000  0.040000     48.000000
 -0.360000  0.240000  0.040000     48.000000
 -0.320000  0.240000  0.040000     48.000000
 -0.280000  0.240000  0.040000     48.000000
 -0.240000  0.240000  0.040000     48.000000
 -0.200000  0.240000  0.040000     24.000000
  0.320000  0.280000  0.040000     24.000000
  0.360000  0.280000  0.040000     48.000000
  0.400000  0.280000  0.040000     48.000000
  0.440000  0.280000  0.040000     48.000000
  0.480000  0.280000  0.040000     48.000000
 -0.480000  0.280000  0.040000     48.000000
 -0.440000  0.280000  0.040000     48.000000
 -0.400000  0.280000  0.040000     48.000000
 -0.360000  0.280000  0.040000     48.000000
 -0.320000  0.280000  0.040000     48.000000
 -0.280000  0.280000  0.040000     48.000000
 -0.240000  0.280000  0.040000     24.000000
  0.360000  0.320000  0.040000     24.000000
  0.400000  0.320000  0.040000     48.000000
  0.440000  0.320000  0.040000     48.000000
  0.480000  0.320000  0.040000     48.000000
 -0.480000  0.320000  0.040000     48.000000
 -0.440000  0.320000  0.040000     48.000000
 -0.400000  0.320000  0.040000     48.000000
 -0.360000  0.320000  0.040000     48.000000
 -0.320000  0.320000  0.040000     48.000000
 -0.280000  0.320000  0.040000     24.000000
  0.400000  0.360000  0.040000     24.000000
  0.440000  0.360000  0.040000     48.000000
  0.480000  0.360000  0.040000     48.000000
 -0.480000  0.360000  0.040000     48.000000
 -0.440000  0.360000  0.040000     48.000000
 -0.400000  0.360000  0.040000     48.000000
 -0.360000  0.360000  0.040000     48.000000
 -0.320000  0.360000  0.040000     24.000000
  0.440000  0.400000  0.040000     24.000000
  0.480000  0.400000  0.040000     48.000000
 -0.480000  0.400000  0.040000     48.000000
 -0.440000  0.400000  0.040000     48.000000
 -0.400000  0.400000  0.040000     48.000000
 -0.360000  0.400000  0.040000     24.000000
  0.480000  0.440000  0.040000     24.000000
 -0.480000  0.440000  0.040000     48.000000
 -0.440000  0.440000  0.040000     48.000000
 -0.400000  0.440000  0.040000     24.000000
 -0.480000  0.480000  0.040000     24.000000
 -0.440000  0.480000  0.040000     24.000000
  0.240000  0.160000  0.080000     24.000000
  0.280000  0.160000  0.080000     48.000000
  0.320000  0.160000  0.080000     48.000000
  0.360000  0.160000  0.080000     48.000000
  0.400000  0.160000  0.080000     48.000000
  0.440000  0.160000  0.080000     48.000000
  0.480000  0.160000  0.080000     48.000000
 -0.480000  0.160000  0.080000     48.000000
 -0.440000  0.160000  0.080000     48.000000
  0.280000  0.200000  0.080000     24.000000
  0.320000  0.200000  0.080000     48.000000
  0.360000  0.200000  0.080000     48.000000
  0.400000  0.200000  0.080000     48.000000
  0.440000  0.200000  0.080000     48.000000
  0.480000  0.200000  0.080000     48.000000
 -0.480000  0.200000  0.080000     48.000000
 -0.440000  0.200000  0.080000     48.000000
 -0.400000  0.200000  0.080000     48.000000
 -0.360000  0.200000  0.080000     48.000000
 -0.320000  0.200000  0.080000     48.000000
 -0.280000  0.200000  0.080000     48.000000
 -0.240000  0.200000  0.080000     48.000000
 -0.200000  0.200000  0.080000     48.000000
 -0.160000  0.200000  0.080000     48.000000
 -0.120000  0.200000  0.080000     24.000000
  0.320000  0.240000  0.080000     24.000000
  0.360000  0.240000  0.080000     48.000000
  0.400000  0.240000  0.080000     48.000000
  0.440000  0.240000  0.080000     48.000000
  0.480000  0.240000  0.080000     48.000000
 -0.480000  0.240000  0.080000     48.000000
 -0.440000  0.240000  0.080000     48.000000
 -0.400000  0.240000  0.080000     48.000000
 -0.360000  0.240000  0.080000     48.000000
 -0.320000  0.240000  0.080000     48.000000
 -0.280000  0.240000  0.080000     48.000000
 -0.240000  0.240000  0.080000     48.000000
 -0.200000  0.240000  0.080000     48.000000
 -0.160000  0.240000  0.080000     24.000000
  0.360000  0.280000  0.080000     24.000000
  0.400000  0.280000  0.080000     48.000000
  0.440000  0.280000  0.080000     48.000000
  0.480000  0.280000  0.080000     48.000000
 -0.480000  0.280000  0.080000     48.000000
 -0.440000  0.280000  0.080000     48.000000
 -0.400000  0.280000  0.080000     48.000000
 -0.360000  0.280000  0.080000     48.000000
 -0.320000  0.280000  0.080000     48.000000
 -0.280000  0.280000  0.080000     48.000000
 -0.240000  0.280000  0.080000     48.000000
 -0.200000  0.280000  0.080000     24.000000
  0.400000  0.320000  0.080000     24.000000
  0.440000  0.320000  0.080000     48.000000
  0.480000  0.320000  0.080000     48.000000
 -0.480000  0.320000  0.080000     48.000000
 -0.440000  0.320000  0.080000     48.000000
 -0.400000  0.320000  0.080000     48.000000
 -0.360000  0.320000  0.080000     48.000000
 -0.320000  0.320000  0.080000     48.000000
 -0.280000  0.320000  0.080000     48.000000
 -0.240000  0.320000  0.080000     24.000000
  0.440000  0.360000  0.080000     24.000000
  0.480000  0.360000  0.080000     48.000000
 -0.480000  0.360000  0.080000     48.000000
 -0.440000  0.360000  0.080000     48.000000
 -0.400000  0.360000  0.080000     48.000000
 -0.360000  0.360000  0.080000     48.000000
 -0.320000  0.360000  0.080000     48.000000
 -0.280000  0.360000  0.080000     24.000000
  0.480000  0.400000  0.080000     24.000000
 -0.480000  0.400000  0.080000     48.000000
 -0.440000  0.400000  0.080000     48.000000
 -0.400000  0.400000  0.080000     48.000000
 -0.360000  0.400000  0.080000     48.000000
 -0.320000  0.400000  0.080000     24.000000
 -0.480000  0.440000  0.080000     24.000000
 -0.440000  0.440000  0.080000     48.000000
 -0.400000  0.440000  0.080000     48.000000
 -0.360000  0.440000  0.080000     24.000000
 -0.440000  0.480000  0.080000     24.000000
 -0.400000  0.480000  0.080000     24.000000
  0.360000  0.240000  0.120000     24.000000
  0.400000  0.240000  0.120000     48.000000
  0.440000  0.240000  0.120000     48.000000
  0.480000  0.240000  0.120000     48.000000
 -0.480000  0.240000  0.120000     48.000000
 -0.440000  0.240000  0.120000     48.000000
 -0.400000  0.240000  0.120000     48.000000
  0.400000  0.280000  0.120000     24.000000
  0.440000  0.280000  0.120000     48.000000
  0.480000  0.280000  0.120000     48.000000
 -0.480000  0.280000  0.120000     48.000000
 -0.440000  0.280000  0.120000     48.000000
 -0.400000  0.280000  0.120000     48.000000
 -0.360000  0.280000  0.120000     48.000000
 -0.320000  0.280000  0.120000     48.000000
 -0.280000  0.280000  0.120000     48.000000
 -0.240000  0.280000  0.120000     48.000000
 -0.200000  0.280000  0.120000     48.000000
 -0.160000  0.280000  0.120000     24.000000
  0.440000  0.320000  0.120000     24.000000
  0.480000  0.320000  0.120000     48.000000
 -0.480000  0.320000  0.120000     48.000000
 -0.440000  0.320000  0.120000     48.000000
 -0.400000  0.320000  0.120000     48.000000
 -0.360000  0.320000  0.120000     48.000000
 -0.320000  0.320000  0.120000     48.000000
 -0.280000  0.320000  0.120000     48.000000
 -0.240000  0.320000  0.120000     48.000000
 -0.200000  0.320000  0.120000     24.000000
  0.480000  0.360000  0.120000     24.000000
 -0.480000  0.360000  0.120000     48.000000
 -0.440000  0.360000  0.120000     48.000000
 -0.400000  0.360000  0.120000     48.000000
 -0.360000  0.360000  0.120000     48.000000
 -0.320000  0.360000  0.120000     48.000000
 -0.280000  0.360000  0.120000     48.000000
 -0.240000  0.360000  0.120000     24.000000
 -0.480000  0.400000  0.120000     24.000000
 -0.440000  0.400000  0.120000     48.000000
 -0.400000  0.400000  0.120000     48.000000
 -0.360000  0.400000  0.120000     48.000000
 -0.320000  0.400000  0.120000     48.000000
 -0.280000  0.400000  0.120000     24.000000
 -0.440000  0.440000  0.120000     24.000000
 -0.400000  0.440000  0.120000     48.000000
 -0.360000  0.440000  0.120000     48.000000
 -0.320000  0.440000  0.120000     24.000000
 -0.400000  0.480000  0.120000     24.000000
 -0.360000  0.480000  0.120000     24.000000
  0.480000  0.320000  0.160000     24.000000
 -0.480000  0.320000  0.160000     48.000000
 -0.440000  0.320000  0.160000     48.000000
 -0.400000  0.320000  0.160000     48.000000
 -0.360000  0.320000  0.160000     48.000000
 -0.480000  0.360000  0.160000     24.000000
 -0.440000  0.360000  0.160000     48.000000
 -0.400000  0.360000  0.160000     48.000000
 -0.360000  0.360000  0.160000     48.000000
 -0.320000  0.360000  0.160000     48.000000
 -0.280000  0.360000  0.160000     48.000000
 -0.240000  0.360000  0.160000     48.000000
 -0.200000  0.360000  0.160000     24.000000
 -0.440000  0.400000  0.160000     24.000000
 -0.400000  0.400000  0.160000     48.000000
 -0.360000  0.400000  0.160000     48.000000
 -0.320000  0.400000  0.160000     48.000000
 -0.280000  0.400000  0.160000     48.000000
 -0.240000  0.400000  0.160000     24.000000
 -0.400000  0.440000  0.160000     24.000000
 -0.360000  0.440000  0.160000     48.000000
 -0.320000  0.440000  0.160000     48.000000
 -0.280000  0.440000  0.160000     24.000000
 -0.360000  0.480000  0.160000     24.000000
 -0.320000  0.480000  0.160000     24.000000
 -0.400000  0.400000  0.200000     24.000000
 -0.360000  0.400000  0.200000     48.000000
 -0.320000  0.400000  0.200000     48.000000
 -0.360000  0.440000  0.200000     24.000000
 -0.320000  0.440000  0.200000     48.000000
 -0.280000  0.440000  0.200000     48.000000
 -0.240000  0.440000  0.200000     24.000000
 -0.320000  0.480000  0.200000     24.000000
 -0.280000  0.480000  0.200000     24.000000
 -0.280000  0.480000  0.240000     24.000000
 
 Following cartesian coordinates:
            Coordinates               Weight
  0.000000  0.000000  0.000000      1.000000
  0.013969 -0.008065 -0.005703      8.000000
  0.027939 -0.016130 -0.011406      8.000000
  0.041908 -0.024196 -0.017109      8.000000
  0.055878 -0.032261 -0.022812      8.000000
  0.069847 -0.040326 -0.028515      8.000000
  0.083816 -0.048391 -0.034218      8.000000
  0.097786 -0.056457 -0.039921      8.000000
  0.111755 -0.064522 -0.045624      8.000000
  0.125725 -0.072587 -0.051327      8.000000
  0.139694 -0.080652 -0.057030      8.000000
  0.153663 -0.088718 -0.062733      8.000000
  0.167633 -0.096783 -0.068436      8.000000
  0.013969  0.008065 -0.011406      6.000000
  0.027939  0.000000 -0.017109     24.000000
  0.041908 -0.008065 -0.022812     24.000000
  0.055878 -0.016130 -0.028515     24.000000
  0.069847 -0.024196 -0.034218     24.000000
  0.083816 -0.032261 -0.039921     24.000000
  0.097786 -0.040326 -0.045624     24.000000
  0.111755 -0.048391 -0.051327     24.000000
  0.125725 -0.056457 -0.057030     24.000000
  0.139694 -0.064522 -0.062733     24.000000
  0.153663 -0.072587 -0.068436     24.000000
  0.167633 -0.080652 -0.074139     24.000000
 -0.167633  0.112913  0.062733     24.000000
 -0.153663  0.104848  0.057030     24.000000
 -0.139694  0.096783  0.051327     24.000000
 -0.125725  0.088718  0.045624     24.000000
 -0.111755  0.080652  0.039921     24.000000
 -0.097786  0.072587  0.034218     24.000000
 -0.083816  0.064522  0.028515     24.000000
 -0.069847  0.056457  0.022812     24.000000
 -0.055878  0.048391  0.017109     24.000000
 -0.041908  0.040326  0.011406     24.000000
 -0.027939  0.032261  0.005703     24.000000
 -0.013969  0.024196  0.000000     12.000000
  0.027939  0.016130 -0.022812      6.000000
  0.041908  0.008065 -0.028515     24.000000
  0.055878  0.000000 -0.034218     24.000000
  0.069847 -0.008065 -0.039921     24.000000
  0.083816 -0.016130 -0.045624     24.000000
  0.097786 -0.024196 -0.051327     24.000000
  0.111755 -0.032261 -0.057030     24.000000
  0.125725 -0.040326 -0.062733     24.000000
  0.139694 -0.048391 -0.068436     24.000000
  0.153663 -0.056457 -0.074139     24.000000
  0.167633 -0.064522 -0.079842     24.000000
 -0.167633  0.129044  0.057030     24.000000
 -0.153663  0.120979  0.051327     24.000000
 -0.139694  0.112913  0.045624     24.000000
 -0.125725  0.104848  0.039921     24.000000
 -0.111755  0.096783  0.034218     24.000000
 -0.097786  0.088718  0.028515     24.000000
 -0.083816  0.080652  0.022812     24.000000
 -0.069847  0.072587  0.017109     24.000000
 -0.055878  0.064522  0.011406     24.000000
 -0.041908  0.056457  0.005703     24.000000
 -0.027939  0.048391  0.000000     12.000000
  0.041908  0.024196 -0.034218      6.000000
  0.055878  0.016130 -0.039921     24.000000
  0.069847  0.008065 -0.045624     24.000000
  0.083816 -0.000000 -0.051327     24.000000
  0.097786 -0.008065 -0.057030     24.000000
  0.111755 -0.016130 -0.062733     24.000000
  0.125725 -0.024196 -0.068436     24.000000
  0.139694 -0.032261 -0.074139     24.000000
  0.153663 -0.040326 -0.079842     24.000000
  0.167633 -0.048391 -0.085545     24.000000
 -0.167633  0.145174  0.051327     24.000000
 -0.153663  0.137109  0.045624     24.000000
 -0.139694  0.129044  0.039921     24.000000
 -0.125725  0.120979  0.034218     24.000000
 -0.111755  0.112913  0.028515     24.000000
 -0.097786  0.104848  0.022812     24.000000
 -0.083816  0.096783  0.017109     24.000000
 -0.069847  0.088718  0.011406     24.000000
 -0.055878  0.080652  0.005703     24.000000
 -0.041908  0.072587  0.000000     12.000000
  0.055878  0.032261 -0.045624      6.000000
  0.069847  0.024196 -0.051327     24.000000
  0.083816  0.016130 -0.057030     24.000000
  0.097786  0.008065 -0.062733     24.000000
  0.111755 -0.000000 -0.068436     24.000000
  0.125725 -0.008065 -0.074139     24.000000
  0.139694 -0.016130 -0.079842     24.000000
  0.153663 -0.024196 -0.085545     24.000000
  0.167633 -0.032261 -0.091248     24.000000
 -0.167633  0.161305  0.045624     24.000000
 -0.153663  0.153240  0.039921     24.000000
 -0.139694  0.145174  0.034218     24.000000
 -0.125725  0.137109  0.028515     24.000000
 -0.111755  0.129044  0.022812     24.000000
 -0.097786  0.120979  0.017109     24.000000
 -0.083816  0.112913  0.011406     24.000000
 -0.069847  0.104848  0.005703     24.000000
 -0.055878  0.096783  0.000000     12.000000
  0.069847  0.040326 -0.057030      6.000000
  0.083816  0.032261 -0.062733     24.000000
  0.097786  0.024196 -0.068436     24.000000
  0.111755  0.016130 -0.074139     24.000000
  0.125725  0.008065 -0.079842     24.000000
  0.139694  0.000000 -0.085545     24.000000
  0.153663 -0.008065 -0.091248     24.000000
  0.167633 -0.016130 -0.096951     24.000000
 -0.167633  0.177435  0.039921     24.000000
 -0.153663  0.169370  0.034218     24.000000
 -0.139694  0.161305  0.028515     24.000000
 -0.125725  0.153240  0.022812     24.000000
 -0.111755  0.145174  0.017109     24.000000
 -0.097786  0.137109  0.011406     24.000000
 -0.083816  0.129044  0.005703     24.000000
 -0.069847  0.120979  0.000000     12.000000
  0.083816  0.048391 -0.068436      6.000000
  0.097786  0.040326 -0.074139     24.000000
  0.111755  0.032261 -0.079842     24.000000
  0.125725  0.024196 -0.085545     24.000000
  0.139694  0.016130 -0.091248     24.000000
  0.153663  0.008065 -0.096951     24.000000
  0.167633  0.000000 -0.102654     24.000000
 -0.167633  0.193566  0.034218     24.000000
 -0.153663  0.185501  0.028515     24.000000
 -0.139694  0.177435  0.022812     24.000000
 -0.125725  0.169370  0.017109     24.000000
 -0.111755  0.161305  0.011406     24.000000
 -0.097786  0.153240  0.005703     24.000000
 -0.083816  0.145174  0.000000     12.000000
  0.097786  0.056457 -0.079842      6.000000
  0.111755  0.048391 -0.085545     24.000000
  0.125725  0.040326 -0.091248     24.000000
  0.139694  0.032261 -0.096951     24.000000
  0.153663  0.024196 -0.102654     24.000000
  0.167633  0.016130 -0.108357     24.000000
 -0.167633  0.209696  0.028515     24.000000
 -0.153663  0.201631  0.022812     24.000000
 -0.139694  0.193566  0.017109     24.000000
 -0.125725  0.185501  0.011406     24.000000
 -0.111755  0.177435  0.005703     24.000000
 -0.097786  0.169370  0.000000     12.000000
  0.111755  0.064522 -0.091248      6.000000
  0.125725  0.056457 -0.096951     24.000000
  0.139694  0.048391 -0.102654     24.000000
  0.153663  0.040326 -0.108357     24.000000
  0.167633  0.032261 -0.114060     24.000000
 -0.167633  0.225827  0.022812     24.000000
 -0.153663  0.217762  0.017109     24.000000
 -0.139694  0.209696  0.011406     24.000000
 -0.125725  0.201631  0.005703     24.000000
 -0.111755  0.193566  0.000000     12.000000
  0.125725  0.072587 -0.102654      6.000000
  0.139694  0.064522 -0.108357     24.000000
  0.153663  0.056457 -0.114060     24.000000
  0.167633  0.048391 -0.119763     24.000000
 -0.167633  0.241957  0.017109     24.000000
 -0.153663  0.233892  0.011406     24.000000
 -0.139694  0.225827  0.005703     24.000000
 -0.125725  0.217762  0.000000     12.000000
  0.139694  0.080652 -0.114060      6.000000
  0.153663  0.072587 -0.119763     24.000000
  0.167633  0.064522 -0.125466     24.000000
 -0.167633  0.258088  0.011406     24.000000
 -0.153663  0.250022  0.005703     24.000000
 -0.139694  0.241957  0.000000     12.000000
  0.153663  0.088718 -0.125466      6.000000
  0.167633  0.080652 -0.131169     24.000000
 -0.167633  0.274218  0.005703     24.000000
 -0.153663  0.266153  0.000000     12.000000
  0.167633  0.096783 -0.136872      6.000000
 -0.167633  0.290349  0.000000     12.000000
  0.041908  0.008065 -0.011406     24.000000
  0.055878  0.000000 -0.017109     48.000000
  0.069847 -0.008065 -0.022812     48.000000
  0.083816 -0.016130 -0.028515     48.000000
  0.097786 -0.024196 -0.034218     48.000000
  0.111755 -0.032261 -0.039921     48.000000
  0.125725 -0.040326 -0.045624     48.000000
  0.139694 -0.048391 -0.051327     48.000000
  0.153663 -0.056457 -0.057030     48.000000
  0.167633 -0.064522 -0.062733     48.000000
 -0.167633  0.129044  0.074139     48.000000
  0.055878  0.016130 -0.022812     24.000000
  0.069847  0.008065 -0.028515     48.000000
  0.083816 -0.000000 -0.034218     48.000000
  0.097786 -0.008065 -0.039921     48.000000
  0.111755 -0.016130 -0.045624     48.000000
  0.125725 -0.024196 -0.051327     48.000000
  0.139694 -0.032261 -0.057030     48.000000
  0.153663 -0.040326 -0.062733     48.000000
  0.167633 -0.048391 -0.068436     48.000000
 -0.167633  0.145174  0.068436     48.000000
 -0.153663  0.137109  0.062733     48.000000
 -0.139694  0.129044  0.057030     48.000000
 -0.125725  0.120979  0.051327     48.000000
 -0.111755  0.112913  0.045624     48.000000
 -0.097786  0.104848  0.039921     48.000000
 -0.083816  0.096783  0.034218     48.000000
 -0.069847  0.088718  0.028515     48.000000
 -0.055878  0.080652  0.022812     48.000000
 -0.041908  0.072587  0.017109     48.000000
 -0.027939  0.064522  0.011406     24.000000
  0.069847  0.024196 -0.034218     24.000000
  0.083816  0.016130 -0.039921     48.000000
  0.097786  0.008065 -0.045624     48.000000
  0.111755 -0.000000 -0.051327     48.000000
  0.125725 -0.008065 -0.057030     48.000000
  0.139694 -0.016130 -0.062733     48.000000
  0.153663 -0.024196 -0.068436     48.000000
  0.167633 -0.032261 -0.074139     48.000000
 -0.167633  0.161305  0.062733     48.000000
 -0.153663  0.153240  0.057030     48.000000
 -0.139694  0.145174  0.051327     48.000000
 -0.125725  0.137109  0.045624     48.000000
 -0.111755  0.129044  0.039921     48.000000
 -0.097786  0.120979  0.034218     48.000000
 -0.083816  0.112913  0.028515     48.000000
 -0.069847  0.104848  0.022812     48.000000
 -0.055878  0.096783  0.017109     48.000000
 -0.041908  0.088718  0.011406     24.000000
  0.083816  0.032261 -0.045624     24.000000
  0.097786  0.024196 -0.051327     48.000000
  0.111755  0.016130 -0.057030     48.000000
  0.125725  0.008065 -0.062733     48.000000
  0.139694  0.000000 -0.068436     48.000000
  0.153663 -0.008065 -0.074139     48.000000
  0.167633 -0.016130 -0.079842     48.000000
 -0.167633  0.177435  0.057030     48.000000
 -0.153663  0.169370  0.051327     48.000000
 -0.139694  0.161305  0.045624     48.000000
 -0.125725  0.153240  0.039921     48.000000
 -0.111755  0.145174  0.034218     48.000000
 -0.097786  0.137109  0.028515     48.000000
 -0.083816  0.129044  0.022812     48.000000
 -0.069847  0.120979  0.017109     48.000000
 -0.055878  0.112913  0.011406     24.000000
  0.097786  0.040326 -0.057030     24.000000
  0.111755  0.032261 -0.062733     48.000000
  0.125725  0.024196 -0.068436     48.000000
  0.139694  0.016130 -0.074139     48.000000
  0.153663  0.008065 -0.079842     48.000000
  0.167633  0.000000 -0.085545     48.000000
 -0.167633  0.193566  0.051327     48.000000
 -0.153663  0.185501  0.045624     48.000000
 -0.139694  0.177435  0.039921     48.000000
 -0.125725  0.169370  0.034218     48.000000
 -0.111755  0.161305  0.028515     48.000000
 -0.097786  0.153240  0.022812     48.000000
 -0.083816  0.145174  0.017109     48.000000
 -0.069847  0.137109  0.011406     24.000000
  0.111755  0.048391 -0.068436     24.000000
  0.125725  0.040326 -0.074139     48.000000
  0.139694  0.032261 -0.079842     48.000000
  0.153663  0.024196 -0.085545     48.000000
  0.167633  0.016130 -0.091248     48.000000
 -0.167633  0.209696  0.045624     48.000000
 -0.153663  0.201631  0.039921     48.000000
 -0.139694  0.193566  0.034218     48.000000
 -0.125725  0.185501  0.028515     48.000000
 -0.111755  0.177435  0.022812     48.000000
 -0.097786  0.169370  0.017109     48.000000
 -0.083816  0.161305  0.011406     24.000000
  0.125725  0.056457 -0.079842     24.000000
  0.139694  0.048391 -0.085545     48.000000
  0.153663  0.040326 -0.091248     48.000000
  0.167633  0.032261 -0.096951     48.000000
 -0.167633  0.225827  0.039921     48.000000
 -0.153663  0.217762  0.034218     48.000000
 -0.139694  0.209696  0.028515     48.000000
 -0.125725  0.201631  0.022812     48.000000
 -0.111755  0.193566  0.017109     48.000000
 -0.097786  0.185501  0.011406     24.000000
  0.139694  0.064522 -0.091248     24.000000
  0.153663  0.056457 -0.096951     48.000000
  0.167633  0.048391 -0.102654     48.000000
 -0.167633  0.241957  0.034218     48.000000
 -0.153663  0.233892  0.028515     48.000000
 -0.139694  0.225827  0.022812     48.000000
 -0.125725  0.217762  0.017109     48.000000
 -0.111755  0.209696  0.011406     24.000000
  0.153663  0.072587 -0.102654     24.000000
  0.167633  0.064522 -0.108357     48.000000
 -0.167633  0.258088  0.028515     48.000000
 -0.153663  0.250022  0.022812     48.000000
 -0.139694  0.241957  0.017109     48.000000
 -0.125725  0.233892  0.011406     24.000000
  0.167633  0.080652 -0.114060     24.000000
 -0.167633  0.274218  0.022812     48.000000
 -0.153663  0.266153  0.017109     48.000000
 -0.139694  0.258088  0.011406     24.000000
 -0.167633  0.290349  0.017109     24.000000
 -0.153663  0.282283  0.011406     24.000000
  0.083816  0.016130 -0.022812     24.000000
  0.097786  0.008065 -0.028515     48.000000
  0.111755 -0.000000 -0.034218     48.000000
  0.125725 -0.008065 -0.039921     48.000000
  0.139694 -0.016130 -0.045624     48.000000
  0.153663 -0.024196 -0.051327     48.000000
  0.167633 -0.032261 -0.057030     48.000000
 -0.167633  0.161305  0.079842     48.000000
 -0.153663  0.153240  0.074139     48.000000
  0.097786  0.024196 -0.034218     24.000000
  0.111755  0.016130 -0.039921     48.000000
  0.125725  0.008065 -0.045624     48.000000
  0.139694  0.000000 -0.051327     48.000000
  0.153663 -0.008065 -0.057030     48.000000
  0.167633 -0.016130 -0.062733     48.000000
 -0.167633  0.177435  0.074139     48.000000
 -0.153663  0.169370  0.068436     48.000000
 -0.139694  0.161305  0.062733     48.000000
 -0.125725  0.153240  0.057030     48.000000
 -0.111755  0.145174  0.051327     48.000000
 -0.097786  0.137109  0.045624     48.000000
 -0.083816  0.129044  0.039921     48.000000
 -0.069847  0.120979  0.034218     48.000000
 -0.055878  0.112913  0.028515     48.000000
 -0.041908  0.104848  0.022812     24.000000
  0.111755  0.032261 -0.045624     24.000000
  0.125725  0.024196 -0.051327     48.000000
  0.139694  0.016130 -0.057030     48.000000
  0.153663  0.008065 -0.062733     48.000000
  0.167633  0.000000 -0.068436     48.000000
 -0.167633  0.193566  0.068436     48.000000
 -0.153663  0.185501  0.062733     48.000000
 -0.139694  0.177435  0.057030     48.000000
 -0.125725  0.169370  0.051327     48.000000
 -0.111755  0.161305  0.045624     48.000000
 -0.097786  0.153240  0.039921     48.000000
 -0.083816  0.145174  0.034218     48.000000
 -0.069847  0.137109  0.028515     48.000000
 -0.055878  0.129044  0.022812     24.000000
  0.125725  0.040326 -0.057030     24.000000
  0.139694  0.032261 -0.062733     48.000000
  0.153663  0.024196 -0.068436     48.000000
  0.167633  0.016130 -0.074139     48.000000
 -0.167633  0.209696  0.062733     48.000000
 -0.153663  0.201631  0.057030     48.000000
 -0.139694  0.193566  0.051327     48.000000
 -0.125725  0.185501  0.045624     48.000000
 -0.111755  0.177435  0.039921     48.000000
 -0.097786  0.169370  0.034218     48.000000
 -0.083816  0.161305  0.028515     48.000000
 -0.069847  0.153240  0.022812     24.000000
  0.139694  0.048391 -0.068436     24.000000
  0.153663  0.040326 -0.074139     48.000000
  0.167633  0.032261 -0.079842     48.000000
 -0.167633  0.225827  0.057030     48.000000
 -0.153663  0.217762  0.051327     48.000000
 -0.139694  0.209696  0.045624     48.000000
 -0.125725  0.201631  0.039921     48.000000
 -0.111755  0.193566  0.034218     48.000000
 -0.097786  0.185501  0.028515     48.000000
 -0.083816  0.177435  0.022812     24.000000
  0.153663  0.056457 -0.079842     24.000000
  0.167633  0.048391 -0.085545     48.000000
 -0.167633  0.241957  0.051327     48.000000
 -0.153663  0.233892  0.045624     48.000000
 -0.139694  0.225827  0.039921     48.000000
 -0.125725  0.217762  0.034218     48.000000
 -0.111755  0.209696  0.028515     48.000000
 -0.097786  0.201631  0.022812     24.000000
  0.167633  0.064522 -0.091248     24.000000
 -0.167633  0.258088  0.045624     48.000000
 -0.153663  0.250022  0.039921     48.000000
 -0.139694  0.241957  0.034218     48.000000
 -0.125725  0.233892  0.028515     48.000000
 -0.111755  0.225827  0.022812     24.000000
 -0.167633  0.274218  0.039921     24.000000
 -0.153663  0.266153  0.034218     48.000000
 -0.139694  0.258088  0.028515     48.000000
 -0.125725  0.250022  0.022812     24.000000
 -0.153663  0.282283  0.028515     24.000000
 -0.139694  0.274218  0.022812     24.000000
  0.125725  0.024196 -0.034218     24.000000
  0.139694  0.016130 -0.039921     48.000000
  0.153663  0.008065 -0.045624     48.000000
  0.167633  0.000000 -0.051327     48.000000
 -0.167633  0.193566  0.085545     48.000000
 -0.153663  0.185501  0.079842     48.000000
 -0.139694  0.177435  0.074139     48.000000
  0.139694  0.032261 -0.045624     24.000000
  0.153663  0.024196 -0.051327     48.000000
  0.167633  0.016130 -0.057030     48.000000
 -0.167633  0.209696  0.079842     48.000000
 -0.153663  0.201631  0.074139     48.000000
 -0.139694  0.193566  0.068436     48.000000
 -0.125725  0.185501  0.062733     48.000000
 -0.111755  0.177435  0.057030     48.000000
 -0.097786  0.169370  0.051327     48.000000
 -0.083816  0.161305  0.045624     48.000000
 -0.069847  0.153240  0.039921     48.000000
 -0.055878  0.145174  0.034218     24.000000
  0.153663  0.040326 -0.057030     24.000000
  0.167633  0.032261 -0.062733     48.000000
 -0.167633  0.225827  0.074139     48.000000
 -0.153663  0.217762  0.068436     48.000000
 -0.139694  0.209696  0.062733     48.000000
 -0.125725  0.201631  0.057030     48.000000
 -0.111755  0.193566  0.051327     48.000000
 -0.097786  0.185501  0.045624     48.000000
 -0.083816  0.177435  0.039921     48.000000
 -0.069847  0.169370  0.034218     24.000000
  0.167633  0.048391 -0.068436     24.000000
 -0.167633  0.241957  0.068436     48.000000
 -0.153663  0.233892  0.062733     48.000000
 -0.139694  0.225827  0.057030     48.000000
 -0.125725  0.217762  0.051327     48.000000
 -0.111755  0.209696  0.045624     48.000000
 -0.097786  0.201631  0.039921     48.000000
 -0.083816  0.193566  0.034218     24.000000
 -0.167633  0.258088  0.062733     24.000000
 -0.153663  0.250022  0.057030     48.000000
 -0.139694  0.241957  0.051327     48.000000
 -0.125725  0.233892  0.045624     48.000000
 -0.111755  0.225827  0.039921     48.000000
 -0.097786  0.217762  0.034218     24.000000
 -0.153663  0.266153  0.051327     24.000000
 -0.139694  0.258088  0.045624     48.000000
 -0.125725  0.250022  0.039921     48.000000
 -0.111755  0.241957  0.034218     24.000000
 -0.139694  0.274218  0.039921     24.000000
 -0.125725  0.266153  0.034218     24.000000
  0.167633  0.032261 -0.045624     24.000000
 -0.167633  0.225827  0.091248     48.000000
 -0.153663  0.217762  0.085545     48.000000
 -0.139694  0.209696  0.079842     48.000000
 -0.125725  0.201631  0.074139     48.000000
 -0.167633  0.241957  0.085545     24.000000
 -0.153663  0.233892  0.079842     48.000000
 -0.139694  0.225827  0.074139     48.000000
 -0.125725  0.217762  0.068436     48.000000
 -0.111755  0.209696  0.062733     48.000000
 -0.097786  0.201631  0.057030     48.000000
 -0.083816  0.193566  0.051327     48.000000
 -0.069847  0.185501  0.045624     24.000000
 -0.153663  0.250022  0.074139     24.000000
 -0.139694  0.241957  0.068436     48.000000
 -0.125725  0.233892  0.062733     48.000000
 -0.111755  0.225827  0.057030     48.000000
 -0.097786  0.217762  0.051327     48.000000
 -0.083816  0.209696  0.045624     24.000000
 -0.139694  0.258088  0.062733     24.000000
 -0.125725  0.250022  0.057030     48.000000
 -0.111755  0.241957  0.051327     48.000000
 -0.097786  0.233892  0.045624     24.000000
 -0.125725  0.266153  0.051327     24.000000
 -0.111755  0.258088  0.045624     24.000000
 -0.139694  0.241957  0.085545     24.000000
 -0.125725  0.233892  0.079842     48.000000
 -0.111755  0.225827  0.074139     48.000000
 -0.125725  0.250022  0.074139     24.000000
 -0.111755  0.241957  0.068436     48.000000
 -0.097786  0.233892  0.062733     48.000000
 -0.083816  0.225827  0.057030     24.000000
 -0.111755  0.258088  0.062733     24.000000
 -0.097786  0.250022  0.057030     24.000000
 -0.097786  0.250022  0.074139     24.000000
 


--------------------------------------------------------------------------------------------------------




 Dimension of arrays:
   k-points           NKPTS =    455   k-points in BZ     NKDIM =    455   number of bands    NBANDS=      5
   number of dos      NEDOS =    301   number of ions     NIONS =      1
   non local maximal  LDIM  =      4   non local SUM 2l+1 LMDIM =      8
   total plane-waves  NPLWV =   1728
   max r-space proj   IRMAX =      1   max aug-charges    IRDMAX=   7630
   dimension x,y,z NGX =    12 NGY =   12 NGZ =   12
   dimension x,y,z NGXF=    24 NGYF=   24 NGZF=   24
   support grid    NGXF=    24 NGYF=   24 NGZF=   24
   ions per type =               1
   NGX,Y,Z   is equivalent  to a cutoff of   8.53,  8.53,  8.53 a.u.
   NGXF,Y,Z  is equivalent  to a cutoff of  17.06, 17.06, 17.06 a.u.

 SYSTEM =  Al atom                                 
 POSCAR =  Al                                      

 Startparameter for this run:
   NWRITE =      2    write-flag & timer
   PREC   = normal    normal or accurate (medium, high low for compatibility)
   ISTART =      1    job   : 0-new  1-cont  2-samecut
   ICHARG =      0    charge: 1-file 2-atom 10-const
   ISPIN  =      1    spin polarized calculation?
   LNONCOLLINEAR =      F non collinear calculations
   LSORBIT =      F    spin-orbit coupling
   INIWAV =      1    electr: 0-lowe 1-rand  2-diag
   LASPH  =      F    aspherical Exc in radial PAW
 Electronic Relaxation 1
   ENCUT  =  400.0 eV  29.40 Ry    5.42 a.u.   3.81  3.81  3.81*2*pi/ulx,y,z
   ENINI  =  400.0     initial cutoff
   ENAUG  =  291.1 eV  augmentation charge cutoff
   NELM   =     60;   NELMIN=  2; NELMDL=  0     # of ELM steps 
   EDIFF  = 0.1E-03   stopping-criterion for ELM
   LREAL  =      F    real-space projection
   NLSPLINE    = F    spline interpolate recip. space projectors
   LCOMPAT=      F    compatible to vasp.4.4
   GGA_COMPAT  = T    GGA compatible to vasp.4.4-vasp.4.6
   LMAXPAW     = -100 max onsite density
   LMAXMIX     =    2 max onsite mixed and CHGCAR
   VOSKOWN=      0    Vosko Wilk Nusair interpolation
   ROPT   =    0.00000
 Ionic relaxation
   EDIFFG = 0.1E-02   stopping-criterion for IOM
   NSW    =      0    number of steps for IOM
   NBLOCK =      1;   KBLOCK =      1    inner block; outer block 
   IBRION =     -1    ionic relax: 0-MD 1-quasi-New 2-CG
   NFREE  =      0    steps in history (QN), initial steepest desc. (CG)
   ISIF   =      2    stress and relaxation
   IWAVPR =     10    prediction:  0-non 1-charg 2-wave 3-comb
   ISYM   =      2    0-nonsym 1-usesym 2-fastsym
   LCORR  =      T    Harris-Foulkes like correction to forces

   POTIM  = 0.5000    time-step for ionic-motion
   TEIN   =    0.0    initial temperature
   TEBEG  =    0.0;   TEEND  =   0.0 temperature during run
   SMASS  =  -3.00    Nose mass-parameter (am)
   estimated Nose-frequenzy (Omega)   =  0.10E-29 period in steps = 0.13E+47 mass=  -0.125E-27a.u.
   SCALEE = 1.0000    scale energy and forces
   NPACO  =    256;   APACO  = 10.0  distance and # of slots for P.C.
   PSTRESS=    0.0 pullay stress

  Mass of Ions in am
   POMASS =  26.98
  Ionic Valenz
   ZVAL   =   3.00
  Atomic Wigner-Seitz radii
   RWIGS  =  -1.00
  virtual crystal weights 
   VCA    =   1.00
   NELECT =       3.0000    total number of electrons
   NUPDOWN=      -1.0000    fix difference up-down

 DOS related values:
   EMIN   =  10.00;   EMAX   =-10.00  energy-range for DOS
   EFERMI =   0.00;   METHOD = LEGACY      
   ISMEAR =    -5;   SIGMA  =   0.20  broadening in eV -4-tet -1-fermi 0-gaus

 Electronic relaxation 2 (details)
   IALGO  =     38    algorithm
   LDIAG  =      T    sub-space diagonalisation (order eigenvalues)
   LSUBROT=      F    optimize rotation matrix (better conditioning)
   TURBO    =      0    0=normal 1=particle mesh
   IRESTART =      0    0=no restart 2=restart with 2 vectors
   NREBOOT  =      0    no. of reboots
   NMIN     =      0    reboot dimension
   EREF     =   0.00    reference energy to select bands
   IMIX   =      4    mixing-type and parameters
     AMIX     =   0.40;   BMIX     =  1.00
     AMIX_MAG =   1.60;   BMIX_MAG =  1.00
     AMIN     =   0.10
     WC   =   100.;   INIMIX=   1;  MIXPRE=   1;  MAXMIX= -45

 Intra band minimization:
   WEIMIN = 0.0000     energy-eigenvalue tresh-hold
   EBREAK =  0.50E-05  absolut break condition
   DEPER  =   0.30     relativ break condition  

   TIME   =   0.40     timestep for ELM

  volume/ion in A,a.u.               =       9.05        61.07
  Fermi-wavevector in a.u.,A,eV,Ry     =   1.133006  2.141072 17.465849  1.283704
  Thomas-Fermi vector in A             =   2.269709

 Write flags
   LWAVE        =      T    write WAVECAR
   LDOWNSAMPLE  =      F    k-point downsampling of WAVECAR
   LCHARG       =      F    write CHGCAR
   LVTOT        =      F    write LOCPOT, total local potential
   LVHAR        =      F    write LOCPOT, Hartree potential only
   LELF         =      F    write electronic localiz. function (ELF)
   LORBIT       =      0    0 simple, 1 ext, 2 COOP (PROOUT), +10 PAW based schemes


 Dipole corrections
   LMONO  =      F    monopole corrections only (constant potential shift)
   LDIPOL =      F    correct potential (dipole corrections)
   IDIPOL =      0    1-x, 2-y, 3-z, 4-all directions 
   EPSILON=  1.0000000 bulk dielectric constant

 Exchange correlation treatment:
   GGA     =    --    GGA type
   LEXCH   =     8    internal setting for exchange type
   LIBXC   =     F    Libxc                    
   VOSKOWN =     0    Vosko Wilk Nusair interpolation
   LHFCALC =     F    Hartree Fock is set to
   LHFONE  =     F    Hartree Fock one center treatment
   AEXX    =    0.0000 exact exchange contribution

 Linear response parameters
   LEPSILON=     F    determine dielectric tensor
   LRPA    =     F    only Hartree local field effects (RPA)
   LNABLA  =     F    use nabla operator in PAW spheres
   LVEL    =     F    velocity operator in full k-point grid
   CSHIFT  =0.1000    complex shift for real part using Kramers Kronig
   OMEGAMAX=  -1.0    maximum frequency
   DEG_THRESHOLD= 0.2000000E-02 threshold for treating states as degnerate
   RTIME   =   -0.100 relaxation time in fs
  (WPLASMAI=    0.000 imaginary part of plasma frequency in eV, 0.658/RTIME)
   DFIELD  = 0.0000000 0.0000000 0.0000000 field for delta impulse in time

  Optional k-point grid parameters
   LKPOINTS_OPT  =     F    use optional k-point grid
   KPOINTS_OPT_MODE=     1    mode for optional k-point grid

 Orbital magnetization related:
   ORBITALMAG=     F  switch on orbital magnetization
   LCHIMAG   =     F  perturbation theory with respect to B field
   DQ        =  0.001000  dq finite difference perturbation B field
   LLRAUG    =     F  two centre corrections for induced B field
   LBONE     =     F  B-component reconstruction in AE one-centre
   LVGVCALC  =     T  calculate vGv susceptibility
   LVGVAPPL  =     F  apply vGv susceptibility instead of pGv for G=0

 Random number generation:
   RANDOM_GENERATOR = DEFAULT
   PCG_SEED         = not used


--------------------------------------------------------------------------------------------------------


 Static calculation
 charge density and potential will be updated during run
 non-spin polarized calculation
 Variant of blocked Davidson
 Davidson routine will perform the subspace rotation
 perform sub-space diagonalisation
    after iterative eigenvector-optimisation
 modified Broyden-mixing scheme, WC =      100.0
 initial mixing is a Kerker type mixing with AMIX =  0.4000 and BMIX =      1.0000
 Hartree-type preconditioning will be used
 using additional bands            3
 reciprocal scheme for non local part
 use partial core corrections
 calculate Harris-corrections to forces   (improved forces if not selfconsistent)
 use gradient corrections 
 use of overlap-Matrix (Vanderbilt PP)
 Fermi weights with tetrahedron method with Bloechl corrections


--------------------------------------------------------------------------------------------------------


  energy-cutoff  :      400.00
  volume of cell :        9.05
      direct lattice vectors                 reciprocal lattice vectors
     2.339130898  0.000000000  0.000000000     0.427509209 -0.246822557 -0.174529904
     1.169565449  2.025746781  0.000000000     0.000000000  0.493645114 -0.174529904
     1.169565449  0.675248927  1.909892381     0.000000000  0.000000000  0.523589711

  length of vectors
     2.339130898  2.339130898  2.339130898     0.523589711  0.523589711  0.523589711



 old parameters found on file WAVECAR:
  energy-cutoff  :      400.00
  volume of cell :        8.55
      direct lattice vectors                 reciprocal lattice vectors
     2.295234364  0.000000000  0.000000000     0.435685356 -0.251543057 -0.177867802
     1.147617182  1.987731267  0.000000000     0.000000000  0.503086115 -0.177867802
     1.147617182  0.662577089  1.874051011     0.000000000  0.000000000  0.533603405

  length of vectors


 k-points in units of 2pi/SCALE and weight: Al Atom   # System label                
   0.00000000  0.00000000  0.00000000       0.000
   0.01396941 -0.00806524 -0.00570299       0.001
   0.02793881 -0.01613048 -0.01140597       0.001
   0.04190822 -0.02419572 -0.01710896       0.001
   0.05587763 -0.03226096 -0.02281195       0.001
   0.06984703 -0.04032620 -0.02851493       0.001
   0.08381644 -0.04839145 -0.03421792       0.001
   0.09778585 -0.05645669 -0.03992091       0.001
   0.11175526 -0.06452193 -0.04562389       0.001
   0.12572466 -0.07258717 -0.05132688       0.001
   0.13969407 -0.08065241 -0.05702987       0.001
   0.15366348 -0.08871765 -0.06273285       0.001
   0.16763288 -0.09678289 -0.06843584       0.001
   0.01396941  0.00806524 -0.01140597       0.000
   0.02793881  0.00000000 -0.01710896       0.002
   0.04190822 -0.00806524 -0.02281195       0.002
   0.05587763 -0.01613048 -0.02851493       0.002
   0.06984703 -0.02419572 -0.03421792       0.002
   0.08381644 -0.03226096 -0.03992091       0.002
   0.09778585 -0.04032620 -0.04562389       0.002
   0.11175526 -0.04839145 -0.05132688       0.002
   0.12572466 -0.05645669 -0.05702987       0.002
   0.13969407 -0.06452193 -0.06273285       0.002
   0.15366348 -0.07258717 -0.06843584       0.002
   0.16763288 -0.08065241 -0.07413882       0.002
  -0.16763288  0.11291337  0.06273285       0.002
  -0.15366348  0.10484813  0.05702987       0.002
  -0.13969407  0.09678289  0.05132688       0.002
  -0.12572466  0.08871765  0.04562389       0.002
  -0.11175526  0.08065241  0.03992091       0.002
  -0.09778585  0.07258717  0.03421792       0.002
  -0.08381644  0.06452193  0.02851493       0.002
  -0.06984703  0.05645669  0.02281195       0.002
  -0.05587763  0.04839145  0.01710896       0.002
  -0.04190822  0.04032620  0.01140597       0.002
  -0.02793881  0.03226096  0.00570299       0.002
  -0.01396941  0.02419572  0.00000000       0.001
   0.02793881  0.01613048 -0.02281195       0.000
   0.04190822  0.00806524 -0.02851493       0.002
   0.05587763  0.00000000 -0.03421792       0.002
   0.06984703 -0.00806524 -0.03992091       0.002
   0.08381644 -0.01613048 -0.04562389       0.002
   0.09778585 -0.02419572 -0.05132688       0.002
   0.11175526 -0.03226096 -0.05702987       0.002
   0.12572466 -0.04032620 -0.06273285       0.002
   0.13969407 -0.04839145 -0.06843584       0.002
   0.15366348 -0.05645669 -0.07413882       0.002
   0.16763288 -0.06452193 -0.07984181       0.002
  -0.16763288  0.12904385  0.05702987       0.002
  -0.15366348  0.12097861  0.05132688       0.002
  -0.13969407  0.11291337  0.04562389       0.002
  -0.12572466  0.10484813  0.03992091       0.002
  -0.11175526  0.09678289  0.03421792       0.002
  -0.09778585  0.08871765  0.02851493       0.002
  -0.08381644  0.08065241  0.02281195       0.002
  -0.06984703  0.07258717  0.01710896       0.002
  -0.05587763  0.06452193  0.01140597       0.002
  -0.04190822  0.05645669  0.00570299       0.002
  -0.02793881  0.04839145  0.00000000       0.001
   0.04190822  0.02419572 -0.03421792       0.000
   0.05587763  0.01613048 -0.03992091       0.002
   0.06984703  0.00806524 -0.04562389       0.002
   0.08381644 -0.00000000 -0.05132688       0.002
   0.09778585 -0.00806524 -0.05702987       0.002
   0.11175526 -0.01613048 -0.06273285       0.002
   0.12572466 -0.02419572 -0.06843584       0.002
   0.13969407 -0.03226096 -0.07413882       0.002
   0.15366348 -0.04032620 -0.07984181       0.002
   0.16763288 -0.04839145 -0.08554480       0.002
  -0.16763288  0.14517434  0.05132688       0.002
  -0.15366348  0.13710910  0.04562389       0.002
  -0.13969407  0.12904385  0.03992091       0.002
  -0.12572466  0.12097861  0.03421792       0.002
  -0.11175526  0.11291337  0.02851493       0.002
  -0.09778585  0.10484813  0.02281195       0.002
  -0.08381644  0.09678289  0.01710896       0.002
  -0.06984703  0.08871765  0.01140597       0.002
  -0.05587763  0.08065241  0.00570299       0.002
  -0.04190822  0.07258717  0.00000000       0.001
   0.05587763  0.03226096 -0.04562389       0.000
   0.06984703  0.02419572 -0.05132688       0.002
   0.08381644  0.01613048 -0.05702987       0.002
   0.09778585  0.00806524 -0.06273285       0.002
   0.11175526 -0.00000000 -0.06843584       0.002
   0.12572466 -0.00806524 -0.07413882       0.002
   0.13969407 -0.01613048 -0.07984181       0.002
   0.15366348 -0.02419572 -0.08554480       0.002
   0.16763288 -0.03226096 -0.09124778       0.002
  -0.16763288  0.16130482  0.04562389       0.002
  -0.15366348  0.15323958  0.03992091       0.002
  -0.13969407  0.14517434  0.03421792       0.002
  -0.12572466  0.13710910  0.02851493       0.002
  -0.11175526  0.12904385  0.02281195       0.002
  -0.09778585  0.12097861  0.01710896       0.002
  -0.08381644  0.11291337  0.01140597       0.002
  -0.06984703  0.10484813  0.00570299       0.002
  -0.05587763  0.09678289  0.00000000       0.001
   0.06984703  0.04032620 -0.05702987       0.000
   0.08381644  0.03226096 -0.06273285       0.002
   0.09778585  0.02419572 -0.06843584       0.002
   0.11175526  0.01613048 -0.07413882       0.002
   0.12572466  0.00806524 -0.07984181       0.002
   0.13969407  0.00000000 -0.08554480       0.002
   0.15366348 -0.00806524 -0.09124778       0.002
   0.16763288 -0.01613048 -0.09695077       0.002
  -0.16763288  0.17743530  0.03992091       0.002
  -0.15366348  0.16937006  0.03421792       0.002
  -0.13969407  0.16130482  0.02851493       0.002
  -0.12572466  0.15323958  0.02281195       0.002
  -0.11175526  0.14517434  0.01710896       0.002
  -0.09778585  0.13710910  0.01140597       0.002
  -0.08381644  0.12904385  0.00570299       0.002
  -0.06984703  0.12097861  0.00000000       0.001
   0.08381644  0.04839145 -0.06843584       0.000
   0.09778585  0.04032620 -0.07413882       0.002
   0.11175526  0.03226096 -0.07984181       0.002
   0.12572466  0.02419572 -0.08554480       0.002
   0.13969407  0.01613048 -0.09124778       0.002
   0.15366348  0.00806524 -0.09695077       0.002
   0.16763288  0.00000000 -0.10265376       0.002
  -0.16763288  0.19356578  0.03421792       0.002
  -0.15366348  0.18550054  0.02851493       0.002
  -0.13969407  0.17743530  0.02281195       0.002
  -0.12572466  0.16937006  0.01710896       0.002
  -0.11175526  0.16130482  0.01140597       0.002
  -0.09778585  0.15323958  0.00570299       0.002
  -0.08381644  0.14517434  0.00000000       0.001
   0.09778585  0.05645669 -0.07984181       0.000
   0.11175526  0.04839145 -0.08554480       0.002
   0.12572466  0.04032620 -0.09124778       0.002
   0.13969407  0.03226096 -0.09695077       0.002
   0.15366348  0.02419572 -0.10265376       0.002
   0.16763288  0.01613048 -0.10835674       0.002
  -0.16763288  0.20969626  0.02851493       0.002
  -0.15366348  0.20163102  0.02281195       0.002
  -0.13969407  0.19356578  0.01710896       0.002
  -0.12572466  0.18550054  0.01140597       0.002
  -0.11175526  0.17743530  0.00570299       0.002
  -0.09778585  0.16937006  0.00000000       0.001
   0.11175526  0.06452193 -0.09124778       0.000
   0.12572466  0.05645669 -0.09695077       0.002
   0.13969407  0.04839145 -0.10265376       0.002
   0.15366348  0.04032620 -0.10835674       0.002
   0.16763288  0.03226096 -0.11405973       0.002
  -0.16763288  0.22582674  0.02281195       0.002
  -0.15366348  0.21776150  0.01710896       0.002
  -0.13969407  0.20969626  0.01140597       0.002
  -0.12572466  0.20163102  0.00570299       0.002
  -0.11175526  0.19356578  0.00000000       0.001
   0.12572466  0.07258717 -0.10265376       0.000
   0.13969407  0.06452193 -0.10835674       0.002
   0.15366348  0.05645669 -0.11405973       0.002
   0.16763288  0.04839145 -0.11976272       0.002
  -0.16763288  0.24195723  0.01710896       0.002
  -0.15366348  0.23389199  0.01140597       0.002
  -0.13969407  0.22582674  0.00570299       0.002
  -0.12572466  0.21776150  0.00000000       0.001
   0.13969407  0.08065241 -0.11405973       0.000
   0.15366348  0.07258717 -0.11976272       0.002
   0.16763288  0.06452193 -0.12546570       0.002
  -0.16763288  0.25808771  0.01140597       0.002
  -0.15366348  0.25002247  0.00570299       0.002
  -0.13969407  0.24195723  0.00000000       0.001
   0.15366348  0.08871765 -0.12546570       0.000
   0.16763288  0.08065241 -0.13116869       0.002
  -0.16763288  0.27421819  0.00570299       0.002
  -0.15366348  0.26615295  0.00000000       0.001
   0.16763288  0.09678289 -0.13687168       0.000
  -0.16763288  0.29034867  0.00000000       0.001
   0.04190822  0.00806524 -0.01140597       0.002
   0.05587763  0.00000000 -0.01710896       0.003
   0.06984703 -0.00806524 -0.02281195       0.003
   0.08381644 -0.01613048 -0.02851493       0.003
   0.09778585 -0.02419572 -0.03421792       0.003
   0.11175526 -0.03226096 -0.03992091       0.003
   0.12572466 -0.04032620 -0.04562389       0.003
   0.13969407 -0.04839145 -0.05132688       0.003
   0.15366348 -0.05645669 -0.05702987       0.003
   0.16763288 -0.06452193 -0.06273285       0.003
  -0.16763288  0.12904385  0.07413882       0.003
   0.05587763  0.01613048 -0.02281195       0.002
   0.06984703  0.00806524 -0.02851493       0.003
   0.08381644 -0.00000000 -0.03421792       0.003
   0.09778585 -0.00806524 -0.03992091       0.003
   0.11175526 -0.01613048 -0.04562389       0.003
   0.12572466 -0.02419572 -0.05132688       0.003
   0.13969407 -0.03226096 -0.05702987       0.003
   0.15366348 -0.04032620 -0.06273285       0.003
   0.16763288 -0.04839145 -0.06843584       0.003
  -0.16763288  0.14517434  0.06843584       0.003
  -0.15366348  0.13710910  0.06273285       0.003
  -0.13969407  0.12904385  0.05702987       0.003
  -0.12572466  0.12097861  0.05132688       0.003
  -0.11175526  0.11291337  0.04562389       0.003
  -0.09778585  0.10484813  0.03992091       0.003
  -0.08381644  0.09678289  0.03421792       0.003
  -0.06984703  0.08871765  0.02851493       0.003
  -0.05587763  0.08065241  0.02281195       0.003
  -0.04190822  0.07258717  0.01710896       0.003
  -0.02793881  0.06452193  0.01140597       0.002
   0.06984703  0.02419572 -0.03421792       0.002
   0.08381644  0.01613048 -0.03992091       0.003
   0.09778585  0.00806524 -0.04562389       0.003
   0.11175526 -0.00000000 -0.05132688       0.003
   0.12572466 -0.00806524 -0.05702987       0.003
   0.13969407 -0.01613048 -0.06273285       0.003
   0.15366348 -0.02419572 -0.06843584       0.003
   0.16763288 -0.03226096 -0.07413882       0.003
  -0.16763288  0.16130482  0.06273285       0.003
  -0.15366348  0.15323958  0.05702987       0.003
  -0.13969407  0.14517434  0.05132688       0.003
  -0.12572466  0.13710910  0.04562389       0.003
  -0.11175526  0.12904385  0.03992091       0.003
  -0.09778585  0.12097861  0.03421792       0.003
  -0.08381644  0.11291337  0.02851493       0.003
  -0.06984703  0.10484813  0.02281195       0.003
  -0.05587763  0.09678289  0.01710896       0.003
  -0.04190822  0.08871765  0.01140597       0.002
   0.08381644  0.03226096 -0.04562389       0.002
   0.09778585  0.02419572 -0.05132688       0.003
   0.11175526  0.01613048 -0.05702987       0.003
   0.12572466  0.00806524 -0.06273285       0.003
   0.13969407  0.00000000 -0.06843584       0.003
   0.15366348 -0.00806524 -0.07413882       0.003
   0.16763288 -0.01613048 -0.07984181       0.003
  -0.16763288  0.17743530  0.05702987       0.003
  -0.15366348  0.16937006  0.05132688       0.003
  -0.13969407  0.16130482  0.04562389       0.003
  -0.12572466  0.15323958  0.03992091       0.003
  -0.11175526  0.14517434  0.03421792       0.003
  -0.09778585  0.13710910  0.02851493       0.003
  -0.08381644  0.12904385  0.02281195       0.003
  -0.06984703  0.12097861  0.01710896       0.003
  -0.05587763  0.11291337  0.01140597       0.002
   0.09778585  0.04032620 -0.05702987       0.002
   0.11175526  0.03226096 -0.06273285       0.003
   0.12572466  0.02419572 -0.06843584       0.003
   0.13969407  0.01613048 -0.07413882       0.003
   0.15366348  0.00806524 -0.07984181       0.003
   0.16763288  0.00000000 -0.08554480       0.003
  -0.16763288  0.19356578  0.05132688       0.003
  -0.15366348  0.18550054  0.04562389       0.003
  -0.13969407  0.17743530  0.03992091       0.003
  -0.12572466  0.16937006  0.03421792       0.003
  -0.11175526  0.16130482  0.02851493       0.003
  -0.09778585  0.15323958  0.02281195       0.003
  -0.08381644  0.14517434  0.01710896       0.003
  -0.06984703  0.13710910  0.01140597       0.002
   0.11175526  0.04839145 -0.06843584       0.002
   0.12572466  0.04032620 -0.07413882       0.003
   0.13969407  0.03226096 -0.07984181       0.003
   0.15366348  0.02419572 -0.08554480       0.003
   0.16763288  0.01613048 -0.09124778       0.003
  -0.16763288  0.20969626  0.04562389       0.003
  -0.15366348  0.20163102  0.03992091       0.003
  -0.13969407  0.19356578  0.03421792       0.003
  -0.12572466  0.18550054  0.02851493       0.003
  -0.11175526  0.17743530  0.02281195       0.003
  -0.09778585  0.16937006  0.01710896       0.003
  -0.08381644  0.16130482  0.01140597       0.002
   0.12572466  0.05645669 -0.07984181       0.002
   0.13969407  0.04839145 -0.08554480       0.003
   0.15366348  0.04032620 -0.09124778       0.003
   0.16763288  0.03226096 -0.09695077       0.003
  -0.16763288  0.22582674  0.03992091       0.003
  -0.15366348  0.21776150  0.03421792       0.003
  -0.13969407  0.20969626  0.02851493       0.003
  -0.12572466  0.20163102  0.02281195       0.003
  -0.11175526  0.19356578  0.01710896       0.003
  -0.09778585  0.18550054  0.01140597       0.002
   0.13969407  0.06452193 -0.09124778       0.002
   0.15366348  0.05645669 -0.09695077       0.003
   0.16763288  0.04839145 -0.10265376       0.003
  -0.16763288  0.24195723  0.03421792       0.003
  -0.15366348  0.23389199  0.02851493       0.003
  -0.13969407  0.22582674  0.02281195       0.003
  -0.12572466  0.21776150  0.01710896       0.003
  -0.11175526  0.20969626  0.01140597       0.002
   0.15366348  0.07258717 -0.10265376       0.002
   0.16763288  0.06452193 -0.10835674       0.003
  -0.16763288  0.25808771  0.02851493       0.003
  -0.15366348  0.25002247  0.02281195       0.003
  -0.13969407  0.24195723  0.01710896       0.003
  -0.12572466  0.23389199  0.01140597       0.002
   0.16763288  0.08065241 -0.11405973       0.002
  -0.16763288  0.27421819  0.02281195       0.003
  -0.15366348  0.26615295  0.01710896       0.003
  -0.13969407  0.25808771  0.01140597       0.002
  -0.16763288  0.29034867  0.01710896       0.002
  -0.15366348  0.28228343  0.01140597       0.002
   0.08381644  0.01613048 -0.02281195       0.002
   0.09778585  0.00806524 -0.02851493       0.003
   0.11175526 -0.00000000 -0.03421792       0.003
   0.12572466 -0.00806524 -0.03992091       0.003
   0.13969407 -0.01613048 -0.04562389       0.003
   0.15366348 -0.02419572 -0.05132688       0.003
   0.16763288 -0.03226096 -0.05702987       0.003
  -0.16763288  0.16130482  0.07984181       0.003
  -0.15366348  0.15323958  0.07413882       0.003
   0.09778585  0.02419572 -0.03421792       0.002
   0.11175526  0.01613048 -0.03992091       0.003
   0.12572466  0.00806524 -0.04562389       0.003
   0.13969407  0.00000000 -0.05132688       0.003
   0.15366348 -0.00806524 -0.05702987       0.003
   0.16763288 -0.01613048 -0.06273285       0.003
  -0.16763288  0.17743530  0.07413882       0.003
  -0.15366348  0.16937006  0.06843584       0.003
  -0.13969407  0.16130482  0.06273285       0.003
  -0.12572466  0.15323958  0.05702987       0.003
  -0.11175526  0.14517434  0.05132688       0.003
  -0.09778585  0.13710910  0.04562389       0.003
  -0.08381644  0.12904385  0.03992091       0.003
  -0.06984703  0.12097861  0.03421792       0.003
  -0.05587763  0.11291337  0.02851493       0.003
  -0.04190822  0.10484813  0.02281195       0.002
   0.11175526  0.03226096 -0.04562389       0.002
   0.12572466  0.02419572 -0.05132688       0.003
   0.13969407  0.01613048 -0.05702987       0.003
   0.15366348  0.00806524 -0.06273285       0.003
   0.16763288  0.00000000 -0.06843584       0.003
  -0.16763288  0.19356578  0.06843584       0.003
  -0.15366348  0.18550054  0.06273285       0.003
  -0.13969407  0.17743530  0.05702987       0.003
  -0.12572466  0.16937006  0.05132688       0.003
  -0.11175526  0.16130482  0.04562389       0.003
  -0.09778585  0.15323958  0.03992091       0.003
  -0.08381644  0.14517434  0.03421792       0.003
  -0.06984703  0.13710910  0.02851493       0.003
  -0.05587763  0.12904385  0.02281195       0.002
   0.12572466  0.04032620 -0.05702987       0.002
   0.13969407  0.03226096 -0.06273285       0.003
   0.15366348  0.02419572 -0.06843584       0.003
   0.16763288  0.01613048 -0.07413882       0.003
  -0.16763288  0.20969626  0.06273285       0.003
  -0.15366348  0.20163102  0.05702987       0.003
  -0.13969407  0.19356578  0.05132688       0.003
  -0.12572466  0.18550054  0.04562389       0.003
  -0.11175526  0.17743530  0.03992091       0.003
  -0.09778585  0.16937006  0.03421792       0.003
  -0.08381644  0.16130482  0.02851493       0.003
  -0.06984703  0.15323958  0.02281195       0.002
   0.13969407  0.04839145 -0.06843584       0.002
   0.15366348  0.04032620 -0.07413882       0.003
   0.16763288  0.03226096 -0.07984181       0.003
  -0.16763288  0.22582674  0.05702987       0.003
  -0.15366348  0.21776150  0.05132688       0.003
  -0.13969407  0.20969626  0.04562389       0.003
  -0.12572466  0.20163102  0.03992091       0.003
  -0.11175526  0.19356578  0.03421792       0.003
  -0.09778585  0.18550054  0.02851493       0.003
  -0.08381644  0.17743530  0.02281195       0.002
   0.15366348  0.05645669 -0.07984181       0.002
   0.16763288  0.04839145 -0.08554480       0.003
  -0.16763288  0.24195723  0.05132688       0.003
  -0.15366348  0.23389199  0.04562389       0.003
  -0.13969407  0.22582674  0.03992091       0.003
  -0.12572466  0.21776150  0.03421792       0.003
  -0.11175526  0.20969626  0.02851493       0.003
  -0.09778585  0.20163102  0.02281195       0.002
   0.16763288  0.06452193 -0.09124778       0.002
  -0.16763288  0.25808771  0.04562389       0.003
  -0.15366348  0.25002247  0.03992091       0.003
  -0.13969407  0.24195723  0.03421792       0.003
  -0.12572466  0.23389199  0.02851493       0.003
  -0.11175526  0.22582674  0.02281195       0.002
  -0.16763288  0.27421819  0.03992091       0.002
  -0.15366348  0.26615295  0.03421792       0.003
  -0.13969407  0.25808771  0.02851493       0.003
  -0.12572466  0.25002247  0.02281195       0.002
  -0.15366348  0.28228343  0.02851493       0.002
  -0.13969407  0.27421819  0.02281195       0.002
   0.12572466  0.02419572 -0.03421792       0.002
   0.13969407  0.01613048 -0.03992091       0.003
   0.15366348  0.00806524 -0.04562389       0.003
   0.16763288  0.00000000 -0.05132688       0.003
  -0.16763288  0.19356578  0.08554480       0.003
  -0.15366348  0.18550054  0.07984181       0.003
  -0.13969407  0.17743530  0.07413882       0.003
   0.13969407  0.03226096 -0.04562389       0.002
   0.15366348  0.02419572 -0.05132688       0.003
   0.16763288  0.01613048 -0.05702987       0.003
  -0.16763288  0.20969626  0.07984181       0.003
  -0.15366348  0.20163102  0.07413882       0.003
  -0.13969407  0.19356578  0.06843584       0.003
  -0.12572466  0.18550054  0.06273285       0.003
  -0.11175526  0.17743530  0.05702987       0.003
  -0.09778585  0.16937006  0.05132688       0.003
  -0.08381644  0.16130482  0.04562389       0.003
  -0.06984703  0.15323958  0.03992091       0.003
  -0.05587763  0.14517434  0.03421792       0.002
   0.15366348  0.04032620 -0.05702987       0.002
   0.16763288  0.03226096 -0.06273285       0.003
  -0.16763288  0.22582674  0.07413882       0.003
  -0.15366348  0.21776150  0.06843584       0.003
  -0.13969407  0.20969626  0.06273285       0.003
  -0.12572466  0.20163102  0.05702987       0.003
  -0.11175526  0.19356578  0.05132688       0.003
  -0.09778585  0.18550054  0.04562389       0.003
  -0.08381644  0.17743530  0.03992091       0.003
  -0.06984703  0.16937006  0.03421792       0.002
   0.16763288  0.04839145 -0.06843584       0.002
  -0.16763288  0.24195723  0.06843584       0.003
  -0.15366348  0.23389199  0.06273285       0.003
  -0.13969407  0.22582674  0.05702987       0.003
  -0.12572466  0.21776150  0.05132688       0.003
  -0.11175526  0.20969626  0.04562389       0.003
  -0.09778585  0.20163102  0.03992091       0.003
[...]
      1       9.8751      2.00000
      2      16.8190     -0.12265
      3      17.7602      0.00000
      4      23.4623      0.00000
      5      31.3189      0.00000

 k-point   411 :      -0.4000    0.4000    0.1200
  band No.  band energies     occupation 
      1      10.9604      2.00000
      2      15.5668      1.48292
      3      17.2698      0.00000
      4      23.2325      0.00000
      5      32.1242      0.00000

 k-point   412 :      -0.3600    0.4000    0.1200
  band No.  band energies     occupation 
      1      12.0474      2.00000
      2      14.3422      2.00000
      3      16.8879      0.00000
      4      23.2496      0.00000
      5      32.8545      0.00000

 k-point   413 :      -0.3200    0.4000    0.1200
  band No.  band energies     occupation 
      1      12.5980      2.00000
      2      13.6352      2.00000
      3      16.7103      0.00000
      4      23.4760      0.00000
      5      33.5609      0.00000

 k-point   414 :      -0.2800    0.4000    0.1200
  band No.  band energies     occupation 
      1      11.6557      2.00000
      2      14.2183      2.00000
      3      16.9588      0.00000
      4      23.8801      0.00000
      5      34.2853      0.00000

 k-point   415 :      -0.4400    0.4400    0.1200
  band No.  band energies     occupation 
      1      10.4058      2.00000
      2      16.0662      0.39166
      3      18.0982      0.00000
      4      23.5191      0.00000
      5      30.1445      0.00000

 k-point   416 :      -0.4000    0.4400    0.1200
  band No.  band energies     occupation 
      1      11.4310      2.00000
      2      15.2642      1.85877
      3      17.3188      0.00000
      4      23.0862      0.00000
      5      31.1194      0.00000

 k-point   417 :      -0.3600    0.4400    0.1200
  band No.  band energies     occupation 
      1      12.4484      2.00000
      2      14.4551      2.00000
      3      16.6087      0.00000
      4      22.9703      0.00000
      5      31.9879      0.00000

 k-point   418 :      -0.3200    0.4400    0.1200
  band No.  band energies     occupation 
      1      13.2372      2.00000
      2      13.6233      2.00000
      3      16.2756      0.00000
      4      23.1168      0.00000
      5      32.7851      0.00000

 k-point   419 :      -0.4000    0.4800    0.1200
  band No.  band energies     occupation 
      1      11.9152      2.00000
      2      14.3820      2.02808
      3      17.9473      0.00000
      4      23.3040      0.00000
      5      30.0135      0.00000

 k-point   420 :      -0.3600    0.4800    0.1200
  band No.  band energies     occupation 
      1      12.5417      2.00000
      2      14.1048      2.00000
      3      17.2158      0.00000
      4      22.9660      0.00000
      5      31.0529      0.00000

 k-point   421 :       0.4800    0.3200    0.1600
  band No.  band energies     occupation 
      1       6.6165      2.00000
      2      18.1943      0.00000
      3      20.8611      0.00000
      4      25.9928      0.00000
      5      33.6540      0.00000

 k-point   422 :      -0.4800    0.3200    0.1600
  band No.  band energies     occupation 
      1       7.6049      2.00000
      2      17.0598     -0.00141
      3      20.1212      0.00000
      4      25.3010      0.00000
      5      34.5295      0.00000

 k-point   423 :      -0.4400    0.3200    0.1600
  band No.  band energies     occupation 
      1       8.6829      2.00000
      2      15.6794      1.07266
      3      19.7817      0.00000
      4      24.7454      0.00000
      5      35.2751      0.00000

 k-point   424 :      -0.4000    0.3200    0.1600
  band No.  band energies     occupation 
      1       9.8215      2.00000
      2      14.2762      2.00000
      3      19.6332      0.00000
      4      24.3551      0.00000
      5      35.9163      0.00000

 k-point   425 :      -0.3600    0.3200    0.1600
  band No.  band energies     occupation 
      1      10.8758      2.00000
      2      13.0763      2.00000
      3      19.5774      0.00000
      4      24.1531      0.00000
      5      36.4674      0.00000

 k-point   426 :      -0.4800    0.3600    0.1600
  band No.  band energies     occupation 
      1       7.9355      2.00000
      2      17.6028      0.00000
      3      19.5049      0.00000
      4      24.4493      0.00000
      5      33.1526      0.00000

 k-point   427 :      -0.4400    0.3600    0.1600
  band No.  band energies     occupation 
      1       8.9733      2.00000
      2      16.5198     -0.12257
      3      18.8428      0.00000
      4      23.8419      0.00000
      5      34.0894      0.00000

 k-point   428 :      -0.4000    0.3600    0.1600
  band No.  band energies     occupation 
      1      10.0839      2.00000
      2      15.1992      1.92646
      3      18.5311      0.00000
      4      23.4349      0.00000
      5      34.8969      0.00000

 k-point   429 :      -0.3600    0.3600    0.1600
  band No.  band energies     occupation 
      1      11.1955      2.00000
      2      13.9242      2.00000
      3      18.3523      0.00000
      4      23.2458      0.00000
      5      35.6139      0.00000

 k-point   430 :      -0.3200    0.3600    0.1600
  band No.  band energies     occupation 
      1      11.7164      2.00000
      2      13.3476      2.00000
      3      18.2470      0.00000
      4      23.2783      0.00000
      5      36.2958      0.00000

 k-point   431 :      -0.2800    0.3600    0.1600
  band No.  band energies     occupation 
      1      10.8316      2.00000
      2      14.2800      2.00000
      3      18.2328      0.00000
      4      23.5219      0.00000
      5      36.9716      0.00000

 k-point   432 :      -0.2400    0.3600    0.1600
  band No.  band energies     occupation 
      1       9.7013      2.00000
      2      15.4861      1.67680
      3      18.4018      0.00000
      4      23.9564      0.00000
      5      36.6843      0.00000

 k-point   433 :      -0.2000    0.3600    0.1600
  band No.  band energies     occupation 
      1       8.6122      2.00000
      2      16.4785     -0.19950
      3      18.9753      0.00000
      4      24.5580      0.00000
      5      35.6795      0.00000

 k-point   434 :      -0.4400    0.4000    0.1600
  band No.  band energies     occupation 
      1       9.3721      2.00000
      2      17.1591      0.00000
      3      17.9500      0.00000
      4      23.3728      0.00000
      5      32.7667      0.00000

 k-point   435 :      -0.4000    0.4000    0.1600
  band No.  band energies     occupation 
      1      10.4447      2.00000
      2      16.0662      0.36486
      3      17.4356      0.00000
      4      22.8590      0.00000
      5      33.7663      0.00000

 k-point   436 :      -0.3600    0.4000    0.1600
  band No.  band energies     occupation 
      1      11.5565      2.00000
      2      14.7965      2.07281
      3      17.1804      0.00000
      4      22.6142      0.00000
      5      34.6374      0.00000

 k-point   437 :      -0.3200    0.4000    0.1600
  band No.  band energies     occupation 
      1      12.4528      2.00000
      2      13.7917      2.00000
      3      17.0186      0.00000
      4      22.6271      0.00000
      5      35.4233      0.00000

 k-point   438 :      -0.2800    0.4000    0.1600
  band No.  band energies     occupation 
      1      11.9023      2.00000
      2      14.2426      2.00000
      3      17.0203      0.00000
      4      22.8733      0.00000
      5      36.1800      0.00000

 k-point   439 :      -0.2400    0.4000    0.1600
  band No.  band energies     occupation 
      1      10.7935      2.00000
      2      15.0597      2.02696
      3      17.4135      0.00000
      4      23.3248      0.00000
      5      36.9493      0.00000

 k-point   440 :      -0.4000    0.4400    0.1600
  band No.  band energies     occupation 
      1      10.8995      2.00000
      2      16.2730      0.08384
      3      16.8636      0.00000
      4      22.7218      0.00000
      5      32.5056      0.00000

 k-point   441 :      -0.3600    0.4400    0.1600
  band No.  band energies     occupation 
      1      11.9712      2.00000
      2      15.3242      1.96262
      3      16.3683     -0.00510
      4      22.3153      0.00000
      5      33.5696      0.00000

 k-point   442 :      -0.3200    0.4400    0.1600
  band No.  band energies     occupation 
      1      12.9985      2.00000
      2      14.2367      2.00000
      3      16.1273     -0.03388
      4      22.2324      0.00000
      5      34.5060      0.00000

 k-point   443 :      -0.2800    0.4400    0.1600
  band No.  band energies     occupation 
      1      12.9878      2.00000
      2      13.9340      2.00000
      3      16.2586     -0.01814
      4      22.4326      0.00000
      5      35.3585      0.00000

 k-point   444 :      -0.3600    0.4800    0.1600
  band No.  band energies     occupation 
      1      12.3926      2.00000
      2      14.6820      2.04486
      3      16.7160     -0.00507
      4      22.4189      0.00000
      5      32.3745      0.00000

 k-point   445 :      -0.3200    0.4800    0.1600
  band No.  band energies     occupation 
      1      13.0966      2.00000
      2      14.3227      2.00000
      3      16.1404     -0.05750
      4      22.1433      0.00000
      5      33.5037      0.00000

 k-point   446 :      -0.4000    0.4000    0.2000
  band No.  band energies     occupation 
      1      10.0227      2.00000
      2      16.0415      0.41700
      3      17.7790      0.00000
      4      23.1336      0.00000
      5      35.3088      0.00000

 k-point   447 :      -0.3600    0.4000    0.2000
  band No.  band energies     occupation 
      1      11.1332      2.00000
      2      15.1006      2.06048
      3      17.2913      0.00000
      4      22.6431      0.00000
      5      36.3825      0.00000

 k-point   448 :      -0.3200    0.4000    0.2000
  band No.  band energies     occupation 
      1      12.1863      2.00000
      2      14.0301      2.00000
      3      17.1535      0.00000
      4      22.3914      0.00000
      5      37.2974      0.00000

 k-point   449 :      -0.3600    0.4400    0.2000
  band No.  band energies     occupation 
      1      11.5167      2.00000
      2      15.7508      1.43839
      3      16.4014     -0.00459
      4      22.2032      0.00000
      5      35.0541      0.00000

 k-point   450 :      -0.3200    0.4400    0.2000
  band No.  band energies     occupation 
      1      12.6062      2.00000
      2      14.7872      2.00065
      3      16.0856      0.02075
      4      21.8580      0.00000
      5      36.1940      0.00000

 k-point   451 :      -0.2800    0.4400    0.2000
  band No.  band energies     occupation 
      1      13.1881      2.00000
      2      14.1239      2.00000
      3      16.0660      0.08796
      4      21.8282      0.00000
      5      37.1845      0.00000

 k-point   452 :      -0.2400    0.4400    0.2000
  band No.  band energies     occupation 
      1      12.2331      2.00000
      2      14.7731      2.00039
      3      16.3803     -0.02979
      4      22.0985      0.00000
      5      37.7647      0.00000

 k-point   453 :      -0.3200    0.4800    0.2000
  band No.  band energies     occupation 
      1      12.9911      2.00000
      2      14.9616      2.00071
      3      15.6056      0.72094
      4      21.7594      0.00000
      5      34.9250      0.00000

 k-point   454 :      -0.2800    0.4800    0.2000
  band No.  band energies     occupation 
      1      13.7922      2.00000
      2      14.2385      2.00000
      3      15.4245      1.50361
      4      21.6027      0.00000
      5      36.1301      0.00000

 k-point   455 :      -0.2800    0.4800    0.2400
  band No.  band energies     occupation 
      1      13.6698      2.00000
      2      14.6298      2.00000
      3      15.1664      1.96416
      4      21.4625      0.00000
      5      37.6409      0.00000


--------------------------------------------------------------------------------------------------------


 soft charge-density along one line, spin component           1
         0         1         2         3         4         5         6         7         8         9
 total charge-density along one line

 pseudopotential strength for first ion, spin component:           1
  8.237  14.022  -0.000  -0.000   0.000  -0.000  -0.000   0.000
 14.022  23.871  -0.000  -0.000   0.000  -0.000  -0.000   0.000
 -0.000  -0.000   2.039   0.000   0.000   5.809   0.000   0.000
 -0.000  -0.000   0.000   2.039   0.000   0.000   5.809   0.000
  0.000   0.000   0.000   0.000   2.039   0.000   0.000   5.809
 -0.000  -0.000   5.809   0.000   0.000  16.501   0.000   0.000
 -0.000  -0.000   0.000   5.809   0.000   0.000  16.501   0.000
  0.000   0.000   0.000   0.000   5.809   0.000   0.000  16.501
 total augmentation occupancy for first ion, spin component:           1
  7.525  -2.618   0.000   0.000   0.000   0.000   0.000   0.000
 -2.618   0.972   0.000   0.000   0.000   0.000   0.000   0.000
  0.000   0.000   2.346   0.000   0.000  -0.186  -0.000  -0.000
  0.000   0.000   0.000   2.346   0.000  -0.000  -0.186  -0.000
  0.000   0.000   0.000   0.000   2.346  -0.000  -0.000  -0.186
  0.000   0.000  -0.186  -0.000  -0.000   0.016   0.000   0.000
  0.000   0.000  -0.000  -0.186  -0.000   0.000   0.016   0.000
  0.000   0.000  -0.000  -0.000  -0.186   0.000   0.000   0.016


------------------------ aborting loop because EDIFF is reached ----------------------------------------


    CHARGE:  cpu time      0.0148: real time      0.0148
    FORLOC:  cpu time      0.0001: real time      0.0001
    FORNL :  cpu time      0.0108: real time      0.0108
    STRESS:  cpu time      0.0978: real time      0.0978
    FORCOR:  cpu time      0.0022: real time      0.0022
    FORHAR:  cpu time      0.0005: real time      0.0005
    MIXING:  cpu time      0.0001: real time      0.0001
    OFIELD:  cpu time      0.0000: real time      0.0000

  FORCE on cell =-STRESS in cart. coord.  units (eV):
  Direction    XX          YY          ZZ          XY          YZ          ZX
  --------------------------------------------------------------------------------------
  Alpha Z    -0.37114    -0.37114    -0.37114
  Ewald     -29.93671   -29.93671   -29.93671    -0.00000    -0.00000    -0.00000
  Hartree     0.12346     0.12346     0.12346     0.00000     0.00000     0.00000
  E(xc)     -10.82121   -10.82119   -10.82118    -0.00002    -0.00001    -0.00002
  Local       2.02974     2.02974     2.02974    -0.00000    -0.00000    -0.00000
  n-local    24.87385    27.59640    26.95631     1.80192    -0.95363     0.69289
  augment    -0.87326    -0.87327    -0.87327     0.00000     0.00000     0.00000
  Kinetic    36.03940    20.54058    11.92612    -7.94661     1.24966   -15.59111
  Fock        0.00000     0.00000     0.00000     0.00000     0.00000     0.00000
  -------------------------------------------------------------------------------------
  Total       9.46178     9.46178     9.46178     0.00000     0.00000     0.00000
  in kB    1675.07749  1675.07749  1675.07749     0.00000     0.00000     0.00000
  external pressure =     1675.08 kB  Pullay stress =        0.00 kB


 VOLUME and BASIS-vectors are now :
 -----------------------------------------------------------------------------
  energy-cutoff  :      400.00
  volume of cell :        9.05
      direct lattice vectors                 reciprocal lattice vectors
     2.339130898  0.000000000  0.000000000     0.427509209 -0.246822557 -0.174529904
     1.169565449  2.025746781  0.000000000     0.000000000  0.493645114 -0.174529904
     1.169565449  0.675248927  1.909892381     0.000000000  0.000000000  0.523589711

  length of vectors
     2.339130898  2.339130898  2.339130898     0.523589711  0.523589711  0.523589711


 FORCES acting on ions
    electron-ion (+dipol)            ewald-force                    non-local-force                 convergence-correction
 -----------------------------------------------------------------------------------------------
   -.670E-15 -.127E-14 0.108E-15   0.322E-15 0.834E-16 0.546E-16   0.154E-27 0.246E-28 0.370E-29   -.676E-16 0.140E-16 0.235E-16
 -----------------------------------------------------------------------------------------------
   -.670E-15 -.127E-14 0.108E-15   0.322E-15 0.834E-16 0.546E-16   0.154E-27 0.246E-28 0.370E-29   -.676E-16 0.140E-16 0.235E-16


 POSITION                                       TOTAL-FORCE (eV/Angst)
 -----------------------------------------------------------------------------------
      0.00000      0.00000      0.00000        -0.000000      0.000000      0.000000
 -----------------------------------------------------------------------------------
    total drift:                               -0.000000     -0.000000      0.000000


--------------------------------------------------------------------------------------------------------



  FREE ENERGIE OF THE ION-ELECTRON SYSTEM (eV)
  ---------------------------------------------------
  free  energy   TOTEN  =        -1.41369160 eV

  energy  without entropy=       -1.41369160  energy(sigma->0) =       -1.41369160



--------------------------------------------------------------------------------------------------------


    POTLOK:  cpu time      0.0034: real time      0.0034


--------------------------------------------------------------------------------------------------------


 writing wavefunctions
     LOOP+:  cpu time      1.6311: real time      1.6311
 -----------------------------------------------------------------------------
|                                                                             |
|           W    W    AA    RRRRR   N    N  II  N    N   GGGG   !!!           |
|           W    W   A  A   R    R  NN   N  II  NN   N  G    G  !!!           |
|           W    W  A    A  R    R  N N  N  II  N N  N  G       !!!           |
|           W WW W  AAAAAA  RRRRR   N  N N  II  N  N N  G  GGG   !            |
|           WW  WW  A    A  R   R   N   NN  II  N   NN  G    G                |
|           W    W  A    A  R    R  N    N  II  N    N   GGGG   !!!           |
|                                                                             |
|     Tetrahedron method does not include variations of the Fermi             |
|     occupations, so forces and stress will be inaccurate. We suggest        |
|     using a different smearing scheme ISMEAR = 1 or 2 for metals in         |
|     relaxations.                                                            |
|                                                                             |
 -----------------------------------------------------------------------------

    4ORBIT:  cpu time      0.0000: real time      0.0000
 BZINTS: Fermi energy:   15.710002;    3.000000 electrons
         Band energy: 0.287102E+02;  BLOECHL correction:   -0.029185

 total amount of memory used by VASP MPI-rank0    36459. kBytes
=======================================================================

   base      :      30000. kBytes
   nonl-proj :       2447. kBytes
   fftplans  :        276. kBytes
   grid      :        385. kBytes
   one-center:          3. kBytes
   wavefun   :       3348. kBytes

  
  
 General timing and accounting informations for this job:
 ========================================================
  
                  Total CPU time used (sec):        2.433
                            User time (sec):        1.846
                          System time (sec):        0.586
                         Elapsed time (sec):        2.630
  
                   Maximum memory used (kb):       53396.
                   Average memory used (kb):          N/A
  
                          Minor page faults:         5973
                          Major page faults:            0
                 Voluntary context switches:         1150
