 vasp.6.4.2 20Jul23 (build Oct 18 2023 12:49:41) complex                         
 executed on             LinuxGNU date 2025.04.11  07:44:06
 running    2 mpi-ranks, with    1 threads/rank, on    1 nodes
 distrk:  each k-point on    2 cores,    1 groups
 distr:  one band on NCORE=   2 cores,    1 groups


--------------------------------------------------------------------------------------------------------


 INCAR:
   SYSTEM = Al atom
   ISMEAR = -5
   ENCUT = 400
   LCHARG = .FALSE.
   NCORE = 2
   NSIM = 1

 POTCAR:    PAW_PBE Al 04Jan2001                  
 POTCAR:    PAW_PBE Al 04Jan2001                  
   SHA256 =  17880443556af62b473fe41b62a467bd001ad55d2cabe504a3f22e34d4e9db96 Al/POTCAR             
   COPYR  = (c) Copyright 04Jan2001 Georg Kresse                                                    
   COPYR  = This file is part of the software VASP. Any use, copying, and all other rights are regul
   COPYR  = If you do not have a valid VASP license, you may not use, copy or distribute this file. 
   VRHFIN =Al: s2p1                                                                                 
   LEXCH  = PE                                                                                      
   EATOM  =    53.5387 eV,    3.9350 Ry                                                             
                                                                                                    
   TITEL  = PAW_PBE Al 04Jan2001                                                                    
   LULTRA =        F    use ultrasoft PP ?                                                          
   IUNSCR =        1    unscreen: 0-lin 1-nonlin 2-no                                               
   RPACOR =    1.500    partial core radius                                                         
   POMASS =   26.981; ZVAL   =    3.000    mass and valenz                                          
   RCORE  =    1.900    outmost cutoff radius                                                       
   RWIGS  =    2.650; RWIGS  =    1.402    wigner-seitz radius (au A)                               
   ENMAX  =  240.300; ENMIN  =  180.225 eV                                                          
   ICORE  =        2    local potential                                                             
   LCOR   =        T    correct aug charges                                                         
   LPAW   =        T    paw PP                                                                      
   EAUG   =  291.052                                                                                
   DEXC   =    0.000                                                                                
   RMAX   =    1.939    core radius for proj-oper                                                   
   RAUG   =    1.300    factor for augmentation sphere                                              
   RDEP   =    1.966    radius for radial grids                                                     
   RDEPT  =    1.856    core radius for aug-charge                                                  
                                                                                                    
   Atomic configuration                                                                             
    6 entries                                                                                       
     n  l   j            E        occ.                                                              
     1  0  0.50     -1511.1048   2.0000                                                             
     2  0  0.50      -108.1629   2.0000                                                             
     2  1  1.50       -69.6402   6.0000                                                             
     3  0  0.50        -7.7528   2.0000                                                             
     3  1  1.50        -2.7121   1.0000                                                             
     3  2  2.50        -2.7212   0.0000                                                             
   Description                                                                                      
     l       E           TYP  RCUT    TYP  RCUT                                                     
     0     -7.7528455     23  1.900                                                                 
     0     -3.3096929     23  1.900                                                                 
     1     -2.7120682     23  1.900                                                                 
     1     13.6058260     23  1.900                                                                 
     2     -2.7211652      7  1.900                                                                 
  local pseudopotential read in
  partial core-charges read in
  partial kinetic energy density read in
  atomic valenz-charges read in
  non local Contribution for L=           0  read in
    real space projection operators read in
  non local Contribution for L=           0  read in
    real space projection operators read in
  non local Contribution for L=           1  read in
    real space projection operators read in
  non local Contribution for L=           1  read in
    real space projection operators read in
    PAW grid and wavefunctions read in

   number of l-projection  operators is LMAX  =           4
   number of lm-projection operators is LMMAX =           8

  PAW_PBE Al 04Jan2001                  :
 energy of atom  1       EATOM=  -53.5387
 kinetic energy error for atom=    0.0005 (will be added to EATOM!!)


 POSCAR: Al
  positions in cartesian coordinates
  No initial velocities read in
 exchange correlation table for  LEXCH =        8
   RHO(1)=    0.500       N(1)  =     2000
   RHO(2)=  100.500       N(2)  =     4000



--------------------------------------------------------------------------------------------------------


 ion  position               nearest neighbor table
   1  0.000  0.000  0.000-

  LATTYP: Found a face centered cubic cell.
 ALAT       =     4.0494591145
  
  Lattice vectors:
  
 A1 = (   2.8634000000,   0.0000000000,   0.0000000000)
 A2 = (   1.4317000000,   2.4797771412,   0.0000000000)
 A3 = (   1.4317000000,   0.8265923804,   2.3379563098)


Analysis of symmetry for initial positions (statically):
=====================================================================
 Subroutine PRICEL returns:
 Original cell was already a primitive cell.
 

 Routine SETGRP: Setting up the symmetry group for a 
 face centered cubic supercell.


 Subroutine GETGRP returns: Found 48 space group operations
 (whereof 48 operations were pure point group operations)
 out of a pool of 48 trial point group operations.


The static configuration has the point symmetry O_h .


Analysis of symmetry for dynamics (positions and initial velocities):
=====================================================================
 Subroutine PRICEL returns:
 Original cell was already a primitive cell.
 

 Routine SETGRP: Setting up the symmetry group for a 
 face centered cubic supercell.


 Subroutine GETGRP returns: Found 48 space group operations
 (whereof 48 operations were pure point group operations)
 out of a pool of 48 trial point group operations.


The dynamic configuration has the point symmetry O_h .


 Subroutine INISYM returns: Found 48 space group operations
 (whereof 48 operations are pure point group operations),
 and found     1 'primitive' translations


----------------------------------------------------------------------------------------

                                     Primitive cell                                     

  volume of cell :      16.6009

  direct lattice vectors                    reciprocal lattice vectors
     2.863400000  0.000000000  0.000000000     0.349235175 -0.201631022 -0.142574663
     1.431700000  2.479777141  0.000000000     0.000000000  0.403262045 -0.142574663
     1.431700000  0.826592380  2.337956310     0.000000000  0.000000000  0.427723989

  length of vectors
     2.863400000  2.863400000  2.863400000     0.427723989  0.427723989  0.427723989

  position of ions in fractional coordinates (direct lattice)
     0.000000000  0.000000000  0.000000000

  ion indices of the primitive-cell ions
   primitive index   ion index
                 1           1

----------------------------------------------------------------------------------------



 KPOINTS: Al Atom   # System label                

Automatic generation of k-mesh.
 Grid dimensions read from file:
 generate k-points for:   28   28   28

 Generating k-lattice:

  Cartesian coordinates                     Fractional coordinates (reciprocal lattice)
     0.012472685 -0.007201108 -0.005091952     0.035714286 -0.000000000 -0.000000000
     0.000000000  0.014402216 -0.005091952     0.000000000  0.035714286 -0.000000000
     0.000000000  0.000000000  0.015275857     0.000000000  0.000000000  0.035714286

  Length of vectors
     0.015275857  0.015275857  0.015275857

  Shift w.r.t. Gamma in fractional coordinates (k-lattice)
     0.000000000  0.000000000  0.000000000

 TETIRR: Found   2931 inequivalent tetrahedra from   131712
 
 Subroutine IBZKPT returns following result:
 ===========================================
 
 Found    624 irreducible k-points:
 
 Following reciprocal coordinates:
            Coordinates               Weight
  0.000000  0.000000  0.000000      1.000000
  0.035714  0.000000  0.000000      8.000000
  0.071429  0.000000  0.000000      8.000000
  0.107143  0.000000  0.000000      8.000000
  0.142857  0.000000  0.000000      8.000000
  0.178571  0.000000  0.000000      8.000000
  0.214286  0.000000  0.000000      8.000000
  0.250000  0.000000  0.000000      8.000000
  0.285714  0.000000  0.000000      8.000000
  0.321429  0.000000  0.000000      8.000000
  0.357143  0.000000  0.000000      8.000000
  0.392857  0.000000  0.000000      8.000000
  0.428571  0.000000  0.000000      8.000000
  0.464286  0.000000  0.000000      8.000000
  0.500000  0.000000  0.000000      4.000000
  0.035714  0.035714  0.000000      6.000000
  0.071429  0.035714  0.000000     24.000000
  0.107143  0.035714  0.000000     24.000000
  0.142857  0.035714  0.000000     24.000000
  0.178571  0.035714  0.000000     24.000000
  0.214286  0.035714  0.000000     24.000000
  0.250000  0.035714  0.000000     24.000000
  0.285714  0.035714  0.000000     24.000000
  0.321429  0.035714  0.000000     24.000000
  0.357143  0.035714  0.000000     24.000000
  0.392857  0.035714  0.000000     24.000000
  0.428571  0.035714  0.000000     24.000000
  0.464286  0.035714  0.000000     24.000000
  0.500000  0.035714  0.000000     24.000000
 -0.464286  0.035714  0.000000     24.000000
 -0.428571  0.035714  0.000000     24.000000
 -0.392857  0.035714  0.000000     24.000000
 -0.357143  0.035714  0.000000     24.000000
 -0.321429  0.035714  0.000000     24.000000
 -0.285714  0.035714  0.000000     24.000000
 -0.250000  0.035714  0.000000     24.000000
 -0.214286  0.035714  0.000000     24.000000
 -0.178571  0.035714  0.000000     24.000000
 -0.142857  0.035714  0.000000     24.000000
 -0.107143  0.035714  0.000000     24.000000
 -0.071429  0.035714  0.000000     24.000000
 -0.035714  0.035714  0.000000     12.000000
  0.071429  0.071429  0.000000      6.000000
  0.107143  0.071429  0.000000     24.000000
  0.142857  0.071429  0.000000     24.000000
  0.178571  0.071429  0.000000     24.000000
  0.214286  0.071429  0.000000     24.000000
  0.250000  0.071429  0.000000     24.000000
  0.285714  0.071429  0.000000     24.000000
  0.321429  0.071429  0.000000     24.000000
  0.357143  0.071429  0.000000     24.000000
  0.392857  0.071429  0.000000     24.000000
  0.428571  0.071429  0.000000     24.000000
  0.464286  0.071429  0.000000     24.000000
  0.500000  0.071429  0.000000     24.000000
 -0.464286  0.071429  0.000000     24.000000
 -0.428571  0.071429  0.000000     24.000000
 -0.392857  0.071429  0.000000     24.000000
 -0.357143  0.071429  0.000000     24.000000
 -0.321429  0.071429  0.000000     24.000000
 -0.285714  0.071429  0.000000     24.000000
 -0.250000  0.071429  0.000000     24.000000
 -0.214286  0.071429  0.000000     24.000000
 -0.178571  0.071429  0.000000     24.000000
 -0.142857  0.071429  0.000000     24.000000
 -0.107143  0.071429  0.000000     24.000000
 -0.071429  0.071429  0.000000     12.000000
  0.107143  0.107143  0.000000      6.000000
  0.142857  0.107143  0.000000     24.000000
  0.178571  0.107143  0.000000     24.000000
  0.214286  0.107143  0.000000     24.000000
  0.250000  0.107143  0.000000     24.000000
  0.285714  0.107143  0.000000     24.000000
  0.321429  0.107143  0.000000     24.000000
  0.357143  0.107143  0.000000     24.000000
  0.392857  0.107143  0.000000     24.000000
  0.428571  0.107143  0.000000     24.000000
  0.464286  0.107143  0.000000     24.000000
  0.500000  0.107143  0.000000     24.000000
 -0.464286  0.107143  0.000000     24.000000
 -0.428571  0.107143  0.000000     24.000000
 -0.392857  0.107143  0.000000     24.000000
 -0.357143  0.107143  0.000000     24.000000
 -0.321429  0.107143  0.000000     24.000000
 -0.285714  0.107143  0.000000     24.000000
 -0.250000  0.107143  0.000000     24.000000
 -0.214286  0.107143  0.000000     24.000000
 -0.178571  0.107143  0.000000     24.000000
 -0.142857  0.107143  0.000000     24.000000
 -0.107143  0.107143  0.000000     12.000000
  0.142857  0.142857  0.000000      6.000000
  0.178571  0.142857  0.000000     24.000000
  0.214286  0.142857  0.000000     24.000000
  0.250000  0.142857  0.000000     24.000000
  0.285714  0.142857  0.000000     24.000000
  0.321429  0.142857  0.000000     24.000000
  0.357143  0.142857  0.000000     24.000000
  0.392857  0.142857  0.000000     24.000000
  0.428571  0.142857  0.000000     24.000000
  0.464286  0.142857  0.000000     24.000000
  0.500000  0.142857  0.000000     24.000000
 -0.464286  0.142857  0.000000     24.000000
 -0.428571  0.142857  0.000000     24.000000
 -0.392857  0.142857  0.000000     24.000000
 -0.357143  0.142857  0.000000     24.000000
 -0.321429  0.142857  0.000000     24.000000
 -0.285714  0.142857  0.000000     24.000000
 -0.250000  0.142857  0.000000     24.000000
 -0.214286  0.142857  0.000000     24.000000
 -0.178571  0.142857  0.000000     24.000000
 -0.142857  0.142857  0.000000     12.000000
  0.178571  0.178571  0.000000      6.000000
  0.214286  0.178571  0.000000     24.000000
  0.250000  0.178571  0.000000     24.000000
  0.285714  0.178571  0.000000     24.000000
  0.321429  0.178571  0.000000     24.000000
  0.357143  0.178571  0.000000     24.000000
  0.392857  0.178571  0.000000     24.000000
  0.428571  0.178571  0.000000     24.000000
  0.464286  0.178571  0.000000     24.000000
  0.500000  0.178571  0.000000     24.000000
 -0.464286  0.178571  0.000000     24.000000
 -0.428571  0.178571  0.000000     24.000000
 -0.392857  0.178571  0.000000     24.000000
 -0.357143  0.178571  0.000000     24.000000
 -0.321429  0.178571  0.000000     24.000000
 -0.285714  0.178571  0.000000     24.000000
 -0.250000  0.178571  0.000000     24.000000
 -0.214286  0.178571  0.000000     24.000000
 -0.178571  0.178571  0.000000     12.000000
  0.214286  0.214286  0.000000      6.000000
  0.250000  0.214286  0.000000     24.000000
  0.285714  0.214286  0.000000     24.000000
  0.321429  0.214286  0.000000     24.000000
  0.357143  0.214286  0.000000     24.000000
  0.392857  0.214286  0.000000     24.000000
  0.428571  0.214286  0.000000     24.000000
  0.464286  0.214286  0.000000     24.000000
  0.500000  0.214286  0.000000     24.000000
 -0.464286  0.214286  0.000000     24.000000
 -0.428571  0.214286  0.000000     24.000000
 -0.392857  0.214286  0.000000     24.000000
 -0.357143  0.214286  0.000000     24.000000
 -0.321429  0.214286  0.000000     24.000000
 -0.285714  0.214286  0.000000     24.000000
 -0.250000  0.214286  0.000000     24.000000
 -0.214286  0.214286  0.000000     12.000000
  0.250000  0.250000  0.000000      6.000000
  0.285714  0.250000  0.000000     24.000000
  0.321429  0.250000  0.000000     24.000000
  0.357143  0.250000  0.000000     24.000000
  0.392857  0.250000  0.000000     24.000000
  0.428571  0.250000  0.000000     24.000000
  0.464286  0.250000  0.000000     24.000000
  0.500000  0.250000  0.000000     24.000000
 -0.464286  0.250000  0.000000     24.000000
 -0.428571  0.250000  0.000000     24.000000
 -0.392857  0.250000  0.000000     24.000000
 -0.357143  0.250000  0.000000     24.000000
 -0.321429  0.250000  0.000000     24.000000
 -0.285714  0.250000  0.000000     24.000000
 -0.250000  0.250000  0.000000     12.000000
  0.285714  0.285714  0.000000      6.000000
  0.321429  0.285714  0.000000     24.000000
  0.357143  0.285714  0.000000     24.000000
  0.392857  0.285714  0.000000     24.000000
  0.428571  0.285714  0.000000     24.000000
  0.464286  0.285714  0.000000     24.000000
  0.500000  0.285714  0.000000     24.000000
 -0.464286  0.285714  0.000000     24.000000
 -0.428571  0.285714  0.000000     24.000000
 -0.392857  0.285714  0.000000     24.000000
 -0.357143  0.285714  0.000000     24.000000
 -0.321429  0.285714  0.000000     24.000000
 -0.285714  0.285714  0.000000     12.000000
  0.321429  0.321429  0.000000      6.000000
  0.357143  0.321429  0.000000     24.000000
  0.392857  0.321429  0.000000     24.000000
  0.428571  0.321429  0.000000     24.000000
  0.464286  0.321429  0.000000     24.000000
  0.500000  0.321429  0.000000     24.000000
 -0.464286  0.321429  0.000000     24.000000
 -0.428571  0.321429  0.000000     24.000000
 -0.392857  0.321429  0.000000     24.000000
 -0.357143  0.321429  0.000000     24.000000
 -0.321429  0.321429  0.000000     12.000000
  0.357143  0.357143  0.000000      6.000000
  0.392857  0.357143  0.000000     24.000000
  0.428571  0.357143  0.000000     24.000000
  0.464286  0.357143  0.000000     24.000000
  0.500000  0.357143  0.000000     24.000000
 -0.464286  0.357143  0.000000     24.000000
 -0.428571  0.357143  0.000000     24.000000
 -0.392857  0.357143  0.000000     24.000000
 -0.357143  0.357143  0.000000     12.000000
  0.392857  0.392857  0.000000      6.000000
  0.428571  0.392857  0.000000     24.000000
  0.464286  0.392857  0.000000     24.000000
  0.500000  0.392857  0.000000     24.000000
 -0.464286  0.392857  0.000000     24.000000
 -0.428571  0.392857  0.000000     24.000000
 -0.392857  0.392857  0.000000     12.000000
  0.428571  0.428571  0.000000      6.000000
  0.464286  0.428571  0.000000     24.000000
  0.500000  0.428571  0.000000     24.000000
 -0.464286  0.428571  0.000000     24.000000
 -0.428571  0.428571  0.000000     12.000000
  0.464286  0.464286  0.000000      6.000000
  0.500000  0.464286  0.000000     24.000000
 -0.464286  0.464286  0.000000     12.000000
  0.500000  0.500000  0.000000      3.000000
  0.107143  0.071429  0.035714     24.000000
  0.142857  0.071429  0.035714     48.000000
  0.178571  0.071429  0.035714     48.000000
  0.214286  0.071429  0.035714     48.000000
  0.250000  0.071429  0.035714     48.000000
  0.285714  0.071429  0.035714     48.000000
  0.321429  0.071429  0.035714     48.000000
  0.357143  0.071429  0.035714     48.000000
  0.392857  0.071429  0.035714     48.000000
  0.428571  0.071429  0.035714     48.000000
  0.464286  0.071429  0.035714     48.000000
  0.500000  0.071429  0.035714     48.000000
 -0.464286  0.071429  0.035714     24.000000
  0.142857  0.107143  0.035714     24.000000
  0.178571  0.107143  0.035714     48.000000
  0.214286  0.107143  0.035714     48.000000
  0.250000  0.107143  0.035714     48.000000
  0.285714  0.107143  0.035714     48.000000
  0.321429  0.107143  0.035714     48.000000
  0.357143  0.107143  0.035714     48.000000
  0.392857  0.107143  0.035714     48.000000
  0.428571  0.107143  0.035714     48.000000
  0.464286  0.107143  0.035714     48.000000
  0.500000  0.107143  0.035714     48.000000
 -0.464286  0.107143  0.035714     48.000000
 -0.428571  0.107143  0.035714     48.000000
 -0.392857  0.107143  0.035714     48.000000
 -0.357143  0.107143  0.035714     48.000000
 -0.321429  0.107143  0.035714     48.000000
 -0.285714  0.107143  0.035714     48.000000
 -0.250000  0.107143  0.035714     48.000000
 -0.214286  0.107143  0.035714     48.000000
 -0.178571  0.107143  0.035714     48.000000
 -0.142857  0.107143  0.035714     48.000000
 -0.107143  0.107143  0.035714     48.000000
 -0.071429  0.107143  0.035714     24.000000
  0.178571  0.142857  0.035714     24.000000
  0.214286  0.142857  0.035714     48.000000
  0.250000  0.142857  0.035714     48.000000
  0.285714  0.142857  0.035714     48.000000
  0.321429  0.142857  0.035714     48.000000
  0.357143  0.142857  0.035714     48.000000
  0.392857  0.142857  0.035714     48.000000
  0.428571  0.142857  0.035714     48.000000
  0.464286  0.142857  0.035714     48.000000
  0.500000  0.142857  0.035714     48.000000
 -0.464286  0.142857  0.035714     48.000000
 -0.428571  0.142857  0.035714     48.000000
 -0.392857  0.142857  0.035714     48.000000
 -0.357143  0.142857  0.035714     48.000000
 -0.321429  0.142857  0.035714     48.000000
 -0.285714  0.142857  0.035714     48.000000
 -0.250000  0.142857  0.035714     48.000000
 -0.214286  0.142857  0.035714     48.000000
 -0.178571  0.142857  0.035714     48.000000
 -0.142857  0.142857  0.035714     48.000000
 -0.107143  0.142857  0.035714     24.000000
  0.214286  0.178571  0.035714     24.000000
  0.250000  0.178571  0.035714     48.000000
  0.285714  0.178571  0.035714     48.000000
  0.321429  0.178571  0.035714     48.000000
  0.357143  0.178571  0.035714     48.000000
  0.392857  0.178571  0.035714     48.000000
  0.428571  0.178571  0.035714     48.000000
  0.464286  0.178571  0.035714     48.000000
  0.500000  0.178571  0.035714     48.000000
 -0.464286  0.178571  0.035714     48.000000
 -0.428571  0.178571  0.035714     48.000000
 -0.392857  0.178571  0.035714     48.000000
 -0.357143  0.178571  0.035714     48.000000
 -0.321429  0.178571  0.035714     48.000000
 -0.285714  0.178571  0.035714     48.000000
 -0.250000  0.178571  0.035714     48.000000
 -0.214286  0.178571  0.035714     48.000000
 -0.178571  0.178571  0.035714     48.000000
 -0.142857  0.178571  0.035714     24.000000
  0.250000  0.214286  0.035714     24.000000
  0.285714  0.214286  0.035714     48.000000
  0.321429  0.214286  0.035714     48.000000
  0.357143  0.214286  0.035714     48.000000
  0.392857  0.214286  0.035714     48.000000
  0.428571  0.214286  0.035714     48.000000
  0.464286  0.214286  0.035714     48.000000
  0.500000  0.214286  0.035714     48.000000
 -0.464286  0.214286  0.035714     48.000000
 -0.428571  0.214286  0.035714     48.000000
 -0.392857  0.214286  0.035714     48.000000
 -0.357143  0.214286  0.035714     48.000000
 -0.321429  0.214286  0.035714     48.000000
 -0.285714  0.214286  0.035714     48.000000
 -0.250000  0.214286  0.035714     48.000000
 -0.214286  0.214286  0.035714     48.000000
 -0.178571  0.214286  0.035714     24.000000
  0.285714  0.250000  0.035714     24.000000
  0.321429  0.250000  0.035714     48.000000
  0.357143  0.250000  0.035714     48.000000
  0.392857  0.250000  0.035714     48.000000
  0.428571  0.250000  0.035714     48.000000
  0.464286  0.250000  0.035714     48.000000
  0.500000  0.250000  0.035714     48.000000
 -0.464286  0.250000  0.035714     48.000000
 -0.428571  0.250000  0.035714     48.000000
 -0.392857  0.250000  0.035714     48.000000
 -0.357143  0.250000  0.035714     48.000000
 -0.321429  0.250000  0.035714     48.000000
 -0.285714  0.250000  0.035714     48.000000
 -0.250000  0.250000  0.035714     48.000000
 -0.214286  0.250000  0.035714     24.000000
  0.321429  0.285714  0.035714     24.000000
  0.357143  0.285714  0.035714     48.000000
  0.392857  0.285714  0.035714     48.000000
  0.428571  0.285714  0.035714     48.000000
  0.464286  0.285714  0.035714     48.000000
  0.500000  0.285714  0.035714     48.000000
 -0.464286  0.285714  0.035714     48.000000
 -0.428571  0.285714  0.035714     48.000000
 -0.392857  0.285714  0.035714     48.000000
 -0.357143  0.285714  0.035714     48.000000
 -0.321429  0.285714  0.035714     48.000000
 -0.285714  0.285714  0.035714     48.000000
 -0.250000  0.285714  0.035714     24.000000
  0.357143  0.321429  0.035714     24.000000
  0.392857  0.321429  0.035714     48.000000
  0.428571  0.321429  0.035714     48.000000
  0.464286  0.321429  0.035714     48.000000
  0.500000  0.321429  0.035714     48.000000
 -0.464286  0.321429  0.035714     48.000000
 -0.428571  0.321429  0.035714     48.000000
 -0.392857  0.321429  0.035714     48.000000
 -0.357143  0.321429  0.035714     48.000000
 -0.321429  0.321429  0.035714     48.000000
 -0.285714  0.321429  0.035714     24.000000
  0.392857  0.357143  0.035714     24.000000
  0.428571  0.357143  0.035714     48.000000
  0.464286  0.357143  0.035714     48.000000
  0.500000  0.357143  0.035714     48.000000
 -0.464286  0.357143  0.035714     48.000000
 -0.428571  0.357143  0.035714     48.000000
 -0.392857  0.357143  0.035714     48.000000
 -0.357143  0.357143  0.035714     48.000000
 -0.321429  0.357143  0.035714     24.000000
  0.428571  0.392857  0.035714     24.000000
  0.464286  0.392857  0.035714     48.000000
  0.500000  0.392857  0.035714     48.000000
 -0.464286  0.392857  0.035714     48.000000
 -0.428571  0.392857  0.035714     48.000000
 -0.392857  0.392857  0.035714     48.000000
 -0.357143  0.392857  0.035714     24.000000
  0.464286  0.428571  0.035714     24.000000
  0.500000  0.428571  0.035714     48.000000
 -0.464286  0.428571  0.035714     48.000000
 -0.428571  0.428571  0.035714     48.000000
 -0.392857  0.428571  0.035714     24.000000
  0.500000  0.464286  0.035714     24.000000
 -0.464286  0.464286  0.035714     48.000000
 -0.428571  0.464286  0.035714     24.000000
 -0.464286  0.500000  0.035714     12.000000
  0.214286  0.142857  0.071429     24.000000
  0.250000  0.142857  0.071429     48.000000
  0.285714  0.142857  0.071429     48.000000
  0.321429  0.142857  0.071429     48.000000
  0.357143  0.142857  0.071429     48.000000
  0.392857  0.142857  0.071429     48.000000
  0.428571  0.142857  0.071429     48.000000
  0.464286  0.142857  0.071429     48.000000
  0.500000  0.142857  0.071429     48.000000
 -0.464286  0.142857  0.071429     48.000000
 -0.428571  0.142857  0.071429     24.000000
  0.250000  0.178571  0.071429     24.000000
  0.285714  0.178571  0.071429     48.000000
  0.321429  0.178571  0.071429     48.000000
  0.357143  0.178571  0.071429     48.000000
  0.392857  0.178571  0.071429     48.000000
  0.428571  0.178571  0.071429     48.000000
  0.464286  0.178571  0.071429     48.000000
  0.500000  0.178571  0.071429     48.000000
 -0.464286  0.178571  0.071429     48.000000
 -0.428571  0.178571  0.071429     48.000000
 -0.392857  0.178571  0.071429     48.000000
 -0.357143  0.178571  0.071429     48.000000
 -0.321429  0.178571  0.071429     48.000000
 -0.285714  0.178571  0.071429     48.000000
 -0.250000  0.178571  0.071429     48.000000
 -0.214286  0.178571  0.071429     48.000000
 -0.178571  0.178571  0.071429     48.000000
 -0.142857  0.178571  0.071429     48.000000
 -0.107143  0.178571  0.071429     24.000000
  0.285714  0.214286  0.071429     24.000000
  0.321429  0.214286  0.071429     48.000000
  0.357143  0.214286  0.071429     48.000000
  0.392857  0.214286  0.071429     48.000000
  0.428571  0.214286  0.071429     48.000000
  0.464286  0.214286  0.071429     48.000000
  0.500000  0.214286  0.071429     48.000000
 -0.464286  0.214286  0.071429     48.000000
 -0.428571  0.214286  0.071429     48.000000
 -0.392857  0.214286  0.071429     48.000000
 -0.357143  0.214286  0.071429     48.000000
 -0.321429  0.214286  0.071429     48.000000
 -0.285714  0.214286  0.071429     48.000000
 -0.250000  0.214286  0.071429     48.000000
 -0.214286  0.214286  0.071429     48.000000
 -0.178571  0.214286  0.071429     48.000000
 -0.142857  0.214286  0.071429     24.000000
  0.321429  0.250000  0.071429     24.000000
  0.357143  0.250000  0.071429     48.000000
  0.392857  0.250000  0.071429     48.000000
  0.428571  0.250000  0.071429     48.000000
  0.464286  0.250000  0.071429     48.000000
  0.500000  0.250000  0.071429     48.000000
 -0.464286  0.250000  0.071429     48.000000
 -0.428571  0.250000  0.071429     48.000000
 -0.392857  0.250000  0.071429     48.000000
 -0.357143  0.250000  0.071429     48.000000
 -0.321429  0.250000  0.071429     48.000000
 -0.285714  0.250000  0.071429     48.000000
 -0.250000  0.250000  0.071429     48.000000
 -0.214286  0.250000  0.071429     48.000000
 -0.178571  0.250000  0.071429     24.000000
  0.357143  0.285714  0.071429     24.000000
  0.392857  0.285714  0.071429     48.000000
  0.428571  0.285714  0.071429     48.000000
  0.464286  0.285714  0.071429     48.000000
  0.500000  0.285714  0.071429     48.000000
 -0.464286  0.285714  0.071429     48.000000
 -0.428571  0.285714  0.071429     48.000000
 -0.392857  0.285714  0.071429     48.000000
 -0.357143  0.285714  0.071429     48.000000
 -0.321429  0.285714  0.071429     48.000000
 -0.285714  0.285714  0.071429     48.000000
 -0.250000  0.285714  0.071429     48.000000
 -0.214286  0.285714  0.071429     24.000000
  0.392857  0.321429  0.071429     24.000000
  0.428571  0.321429  0.071429     48.000000
  0.464286  0.321429  0.071429     48.000000
  0.500000  0.321429  0.071429     48.000000
 -0.464286  0.321429  0.071429     48.000000
 -0.428571  0.321429  0.071429     48.000000
 -0.392857  0.321429  0.071429     48.000000
 -0.357143  0.321429  0.071429     48.000000
 -0.321429  0.321429  0.071429     48.000000
 -0.285714  0.321429  0.071429     48.000000
 -0.250000  0.321429  0.071429     24.000000
  0.428571  0.357143  0.071429     24.000000
  0.464286  0.357143  0.071429     48.000000
  0.500000  0.357143  0.071429     48.000000
 -0.464286  0.357143  0.071429     48.000000
 -0.428571  0.357143  0.071429     48.000000
 -0.392857  0.357143  0.071429     48.000000
 -0.357143  0.357143  0.071429     48.000000
 -0.321429  0.357143  0.071429     48.000000
 -0.285714  0.357143  0.071429     24.000000
  0.464286  0.392857  0.071429     24.000000
  0.500000  0.392857  0.071429     48.000000
 -0.464286  0.392857  0.071429     48.000000
 -0.428571  0.392857  0.071429     48.000000
 -0.392857  0.392857  0.071429     48.000000
 -0.357143  0.392857  0.071429     48.000000
 -0.321429  0.392857  0.071429     24.000000
  0.500000  0.428571  0.071429     24.000000
 -0.464286  0.428571  0.071429     48.000000
 -0.428571  0.428571  0.071429     48.000000
 -0.392857  0.428571  0.071429     48.000000
 -0.357143  0.428571  0.071429     24.000000
 -0.464286  0.464286  0.071429     24.000000
 -0.428571  0.464286  0.071429     48.000000
 -0.392857  0.464286  0.071429     24.000000
 -0.428571  0.500000  0.071429     12.000000
  0.321429  0.214286  0.107143     24.000000
  0.357143  0.214286  0.107143     48.000000
  0.392857  0.214286  0.107143     48.000000
  0.428571  0.214286  0.107143     48.000000
  0.464286  0.214286  0.107143     48.000000
  0.500000  0.214286  0.107143     48.000000
 -0.464286  0.214286  0.107143     48.000000
 -0.428571  0.214286  0.107143     48.000000
 -0.392857  0.214286  0.107143     24.000000
  0.357143  0.250000  0.107143     24.000000
  0.392857  0.250000  0.107143     48.000000
  0.428571  0.250000  0.107143     48.000000
  0.464286  0.250000  0.107143     48.000000
  0.500000  0.250000  0.107143     48.000000
 -0.464286  0.250000  0.107143     48.000000
 -0.428571  0.250000  0.107143     48.000000
 -0.392857  0.250000  0.107143     48.000000
 -0.357143  0.250000  0.107143     48.000000
 -0.321429  0.250000  0.107143     48.000000
 -0.285714  0.250000  0.107143     48.000000
 -0.250000  0.250000  0.107143     48.000000
 -0.214286  0.250000  0.107143     48.000000
 -0.178571  0.250000  0.107143     48.000000
 -0.142857  0.250000  0.107143     24.000000
  0.392857  0.285714  0.107143     24.000000
  0.428571  0.285714  0.107143     48.000000
  0.464286  0.285714  0.107143     48.000000
  0.500000  0.285714  0.107143     48.000000
 -0.464286  0.285714  0.107143     48.000000
 -0.428571  0.285714  0.107143     48.000000
 -0.392857  0.285714  0.107143     48.000000
 -0.357143  0.285714  0.107143     48.000000
 -0.321429  0.285714  0.107143     48.000000
 -0.285714  0.285714  0.107143     48.000000
 -0.250000  0.285714  0.107143     48.000000
 -0.214286  0.285714  0.107143     48.000000
 -0.178571  0.285714  0.107143     24.000000
  0.428571  0.321429  0.107143     24.000000
  0.464286  0.321429  0.107143     48.000000
  0.500000  0.321429  0.107143     48.000000
 -0.464286  0.321429  0.107143     48.000000
 -0.428571  0.321429  0.107143     48.000000
 -0.392857  0.321429  0.107143     48.000000
 -0.357143  0.321429  0.107143     48.000000
 -0.321429  0.321429  0.107143     48.000000
 -0.285714  0.321429  0.107143     48.000000
 -0.250000  0.321429  0.107143     48.000000
 -0.214286  0.321429  0.107143     24.000000
  0.464286  0.357143  0.107143     24.000000
  0.500000  0.357143  0.107143     48.000000
 -0.464286  0.357143  0.107143     48.000000
 -0.428571  0.357143  0.107143     48.000000
 -0.392857  0.357143  0.107143     48.000000
 -0.357143  0.357143  0.107143     48.000000
 -0.321429  0.357143  0.107143     48.000000
 -0.285714  0.357143  0.107143     48.000000
 -0.250000  0.357143  0.107143     24.000000
  0.500000  0.392857  0.107143     24.000000
 -0.464286  0.392857  0.107143     48.000000
 -0.428571  0.392857  0.107143     48.000000
 -0.392857  0.392857  0.107143     48.000000
 -0.357143  0.392857  0.107143     48.000000
 -0.321429  0.392857  0.107143     48.000000
 -0.285714  0.392857  0.107143     24.000000
 -0.464286  0.428571  0.107143     24.000000
 -0.428571  0.428571  0.107143     48.000000
 -0.392857  0.428571  0.107143     48.000000
 -0.357143  0.428571  0.107143     48.000000
 -0.321429  0.428571  0.107143     24.000000
 -0.428571  0.464286  0.107143     24.000000
 -0.392857  0.464286  0.107143     48.000000
 -0.357143  0.464286  0.107143     24.000000
 -0.392857  0.500000  0.107143     12.000000
  0.428571  0.285714  0.142857     24.000000
  0.464286  0.285714  0.142857     48.000000
  0.500000  0.285714  0.142857     48.000000
 -0.464286  0.285714  0.142857     48.000000
 -0.428571  0.285714  0.142857     48.000000
 -0.392857  0.285714  0.142857     48.000000
 -0.357143  0.285714  0.142857     24.000000
  0.464286  0.321429  0.142857     24.000000
  0.500000  0.321429  0.142857     48.000000
 -0.464286  0.321429  0.142857     48.000000
 -0.428571  0.321429  0.142857     48.000000
 -0.392857  0.321429  0.142857     48.000000
 -0.357143  0.321429  0.142857     48.000000
 -0.321429  0.321429  0.142857     48.000000
 -0.285714  0.321429  0.142857     48.000000
 -0.250000  0.321429  0.142857     48.000000
 -0.214286  0.321429  0.142857     48.000000
 -0.178571  0.321429  0.142857     24.000000
  0.500000  0.357143  0.142857     24.000000
 -0.464286  0.357143  0.142857     48.000000
 -0.428571  0.357143  0.142857     48.000000
 -0.392857  0.357143  0.142857     48.000000
 -0.357143  0.357143  0.142857     48.000000
 -0.321429  0.357143  0.142857     48.000000
 -0.285714  0.357143  0.142857     48.000000
 -0.250000  0.357143  0.142857     48.000000
 -0.214286  0.357143  0.142857     24.000000
 -0.464286  0.392857  0.142857     24.000000
 -0.428571  0.392857  0.142857     48.000000
 -0.392857  0.392857  0.142857     48.000000
 -0.357143  0.392857  0.142857     48.000000
 -0.321429  0.392857  0.142857     48.000000
 -0.285714  0.392857  0.142857     48.000000
 -0.250000  0.392857  0.142857     24.000000
 -0.428571  0.428571  0.142857     24.000000
 -0.392857  0.428571  0.142857     48.000000
 -0.357143  0.428571  0.142857     48.000000
 -0.321429  0.428571  0.142857     48.000000
 -0.285714  0.428571  0.142857     24.000000
 -0.392857  0.464286  0.142857     24.000000
 -0.357143  0.464286  0.142857     48.000000
 -0.321429  0.464286  0.142857     24.000000
 -0.357143  0.500000  0.142857     12.000000
 -0.464286  0.357143  0.178571     24.000000
 -0.428571  0.357143  0.178571     48.000000
 -0.392857  0.357143  0.178571     48.000000
 -0.357143  0.357143  0.178571     48.000000
 -0.321429  0.357143  0.178571     24.000000
 -0.428571  0.392857  0.178571     24.000000
 -0.392857  0.392857  0.178571     48.000000
 -0.357143  0.392857  0.178571     48.000000
 -0.321429  0.392857  0.178571     48.000000
 -0.285714  0.392857  0.178571     48.000000
 -0.250000  0.392857  0.178571     48.000000
 -0.214286  0.392857  0.178571     24.000000
 -0.392857  0.428571  0.178571     24.000000
 -0.357143  0.428571  0.178571     48.000000
 -0.321429  0.428571  0.178571     48.000000
 -0.285714  0.428571  0.178571     48.000000
 -0.250000  0.428571  0.178571     24.000000
 -0.357143  0.464286  0.178571     24.000000
 -0.321429  0.464286  0.178571     48.000000
 -0.285714  0.464286  0.178571     24.000000
 -0.321429  0.500000  0.178571     12.000000
 -0.357143  0.428571  0.214286     24.000000
 -0.321429  0.428571  0.214286     48.000000
 -0.285714  0.428571  0.214286     24.000000
 -0.321429  0.464286  0.214286     24.000000
 -0.285714  0.464286  0.214286     48.000000
 -0.250000  0.464286  0.214286     24.000000
 -0.285714  0.500000  0.214286     12.000000
 -0.250000  0.500000  0.250000      6.000000
 
 Following cartesian coordinates:
            Coordinates               Weight
  0.000000  0.000000  0.000000      1.000000
  0.012473 -0.007201 -0.005092      8.000000
  0.024945 -0.014402 -0.010184      8.000000
  0.037418 -0.021603 -0.015276      8.000000
  0.049891 -0.028804 -0.020368      8.000000
  0.062363 -0.036006 -0.025460      8.000000
  0.074836 -0.043207 -0.030552      8.000000
  0.087309 -0.050408 -0.035644      8.000000
  0.099781 -0.057609 -0.040736      8.000000
  0.112254 -0.064810 -0.045828      8.000000
  0.124727 -0.072011 -0.050920      8.000000
  0.137200 -0.079212 -0.056011      8.000000
  0.149672 -0.086413 -0.061103      8.000000
  0.162145 -0.093614 -0.066195      8.000000
  0.174618 -0.100816 -0.071287      4.000000
  0.012473  0.007201 -0.010184      6.000000
  0.024945  0.000000 -0.015276     24.000000
  0.037418 -0.007201 -0.020368     24.000000
  0.049891 -0.014402 -0.025460     24.000000
  0.062363 -0.021603 -0.030552     24.000000
  0.074836 -0.028804 -0.035644     24.000000
  0.087309 -0.036006 -0.040736     24.000000
  0.099781 -0.043207 -0.045828     24.000000
  0.112254 -0.050408 -0.050920     24.000000
  0.124727 -0.057609 -0.056011     24.000000
  0.137200 -0.064810 -0.061103     24.000000
  0.149672 -0.072011 -0.066195     24.000000
  0.162145 -0.079212 -0.071287     24.000000
  0.174618 -0.086413 -0.076379     24.000000
 -0.162145  0.108017  0.061103     24.000000
 -0.149672  0.100816  0.056011     24.000000
 -0.137200  0.093614  0.050920     24.000000
 -0.124727  0.086413  0.045828     24.000000
 -0.112254  0.079212  0.040736     24.000000
 -0.099781  0.072011  0.035644     24.000000
 -0.087309  0.064810  0.030552     24.000000
 -0.074836  0.057609  0.025460     24.000000
 -0.062363  0.050408  0.020368     24.000000
 -0.049891  0.043207  0.015276     24.000000
 -0.037418  0.036006  0.010184     24.000000
 -0.024945  0.028804  0.005092     24.000000
 -0.012473  0.021603  0.000000     12.000000
  0.024945  0.014402 -0.020368      6.000000
  0.037418  0.007201 -0.025460     24.000000
  0.049891 -0.000000 -0.030552     24.000000
  0.062363 -0.007201 -0.035644     24.000000
  0.074836 -0.014402 -0.040736     24.000000
  0.087309 -0.021603 -0.045828     24.000000
  0.099781 -0.028804 -0.050920     24.000000
  0.112254 -0.036006 -0.056011     24.000000
  0.124727 -0.043207 -0.061103     24.000000
  0.137200 -0.050408 -0.066195     24.000000
  0.149672 -0.057609 -0.071287     24.000000
  0.162145 -0.064810 -0.076379     24.000000
  0.174618 -0.072011 -0.081471     24.000000
 -0.162145  0.122419  0.056011     24.000000
 -0.149672  0.115218  0.050920     24.000000
 -0.137200  0.108017  0.045828     24.000000
 -0.124727  0.100816  0.040736     24.000000
 -0.112254  0.093614  0.035644     24.000000
 -0.099781  0.086413  0.030552     24.000000
 -0.087309  0.079212  0.025460     24.000000
 -0.074836  0.072011  0.020368     24.000000
 -0.062363  0.064810  0.015276     24.000000
 -0.049891  0.057609  0.010184     24.000000
 -0.037418  0.050408  0.005092     24.000000
 -0.024945  0.043207  0.000000     12.000000
  0.037418  0.021603 -0.030552      6.000000
  0.049891  0.014402 -0.035644     24.000000
  0.062363  0.007201 -0.040736     24.000000
  0.074836 -0.000000 -0.045828     24.000000
  0.087309 -0.007201 -0.050920     24.000000
  0.099781 -0.014402 -0.056011     24.000000
  0.112254 -0.021603 -0.061103     24.000000
  0.124727 -0.028804 -0.066195     24.000000
  0.137200 -0.036006 -0.071287     24.000000
  0.149672 -0.043207 -0.076379     24.000000
  0.162145 -0.050408 -0.081471     24.000000
  0.174618 -0.057609 -0.086563     24.000000
 -0.162145  0.136821  0.050920     24.000000
 -0.149672  0.129620  0.045828     24.000000
 -0.137200  0.122419  0.040736     24.000000
 -0.124727  0.115218  0.035644     24.000000
 -0.112254  0.108017  0.030552     24.000000
 -0.099781  0.100816  0.025460     24.000000
 -0.087309  0.093614  0.020368     24.000000
 -0.074836  0.086413  0.015276     24.000000
 -0.062363  0.079212  0.010184     24.000000
 -0.049891  0.072011  0.005092     24.000000
 -0.037418  0.064810  0.000000     12.000000
  0.049891  0.028804 -0.040736      6.000000
  0.062363  0.021603 -0.045828     24.000000
  0.074836  0.014402 -0.050920     24.000000
  0.087309  0.007201 -0.056011     24.000000
  0.099781  0.000000 -0.061103     24.000000
  0.112254 -0.007201 -0.066195     24.000000
  0.124727 -0.014402 -0.071287     24.000000
  0.137200 -0.021603 -0.076379     24.000000
  0.149672 -0.028804 -0.081471     24.000000
  0.162145 -0.036006 -0.086563     24.000000
  0.174618 -0.043207 -0.091655     24.000000
 -0.162145  0.151223  0.045828     24.000000
 -0.149672  0.144022  0.040736     24.000000
 -0.137200  0.136821  0.035644     24.000000
 -0.124727  0.129620  0.030552     24.000000
 -0.112254  0.122419  0.025460     24.000000
 -0.099781  0.115218  0.020368     24.000000
 -0.087309  0.108017  0.015276     24.000000
 -0.074836  0.100816  0.010184     24.000000
 -0.062363  0.093614  0.005092     24.000000
 -0.049891  0.086413  0.000000     12.000000
  0.062363  0.036006 -0.050920      6.000000
  0.074836  0.028804 -0.056011     24.000000
  0.087309  0.021603 -0.061103     24.000000
  0.099781  0.014402 -0.066195     24.000000
  0.112254  0.007201 -0.071287     24.000000
  0.124727  0.000000 -0.076379     24.000000
  0.137200 -0.007201 -0.081471     24.000000
  0.149672 -0.014402 -0.086563     24.000000
  0.162145 -0.021603 -0.091655     24.000000
  0.174618 -0.028804 -0.096747     24.000000
 -0.162145  0.165625  0.040736     24.000000
 -0.149672  0.158424  0.035644     24.000000
 -0.137200  0.151223  0.030552     24.000000
 -0.124727  0.144022  0.025460     24.000000
 -0.112254  0.136821  0.020368     24.000000
 -0.099781  0.129620  0.015276     24.000000
 -0.087309  0.122419  0.010184     24.000000
 -0.074836  0.115218  0.005092     24.000000
 -0.062363  0.108017  0.000000     12.000000
  0.074836  0.043207 -0.061103      6.000000
  0.087309  0.036006 -0.066195     24.000000
  0.099781  0.028804 -0.071287     24.000000
  0.112254  0.021603 -0.076379     24.000000
  0.124727  0.014402 -0.081471     24.000000
  0.137200  0.007201 -0.086563     24.000000
  0.149672  0.000000 -0.091655     24.000000
  0.162145 -0.007201 -0.096747     24.000000
  0.174618 -0.014402 -0.101839     24.000000
 -0.162145  0.180028  0.035644     24.000000
 -0.149672  0.172827  0.030552     24.000000
 -0.137200  0.165625  0.025460     24.000000
 -0.124727  0.158424  0.020368     24.000000
 -0.112254  0.151223  0.015276     24.000000
 -0.099781  0.144022  0.010184     24.000000
 -0.087309  0.136821  0.005092     24.000000
 -0.074836  0.129620  0.000000     12.000000
  0.087309  0.050408 -0.071287      6.000000
  0.099781  0.043207 -0.076379     24.000000
  0.112254  0.036006 -0.081471     24.000000
  0.124727  0.028804 -0.086563     24.000000
  0.137200  0.021603 -0.091655     24.000000
  0.149672  0.014402 -0.096747     24.000000
  0.162145  0.007201 -0.101839     24.000000
  0.174618  0.000000 -0.106931     24.000000
 -0.162145  0.194430  0.030552     24.000000
 -0.149672  0.187229  0.025460     24.000000
 -0.137200  0.180028  0.020368     24.000000
 -0.124727  0.172827  0.015276     24.000000
 -0.112254  0.165625  0.010184     24.000000
 -0.099781  0.158424  0.005092     24.000000
 -0.087309  0.151223  0.000000     12.000000
  0.099781  0.057609 -0.081471      6.000000
  0.112254  0.050408 -0.086563     24.000000
  0.124727  0.043207 -0.091655     24.000000
  0.137200  0.036006 -0.096747     24.000000
  0.149672  0.028804 -0.101839     24.000000
  0.162145  0.021603 -0.106931     24.000000
  0.174618  0.014402 -0.112023     24.000000
 -0.162145  0.208832  0.025460     24.000000
 -0.149672  0.201631  0.020368     24.000000
 -0.137200  0.194430  0.015276     24.000000
 -0.124727  0.187229  0.010184     24.000000
 -0.112254  0.180028  0.005092     24.000000
 -0.099781  0.172827  0.000000     12.000000
  0.112254  0.064810 -0.091655      6.000000
  0.124727  0.057609 -0.096747     24.000000
  0.137200  0.050408 -0.101839     24.000000
  0.149672  0.043207 -0.106931     24.000000
  0.162145  0.036006 -0.112023     24.000000
  0.174618  0.028804 -0.117115     24.000000
 -0.162145  0.223234  0.020368     24.000000
 -0.149672  0.216033  0.015276     24.000000
 -0.137200  0.208832  0.010184     24.000000
 -0.124727  0.201631  0.005092     24.000000
 -0.112254  0.194430  0.000000     12.000000
  0.124727  0.072011 -0.101839      6.000000
  0.137200  0.064810 -0.106931     24.000000
  0.149672  0.057609 -0.112023     24.000000
  0.162145  0.050408 -0.117115     24.000000
  0.174618  0.043207 -0.122207     24.000000
 -0.162145  0.237637  0.015276     24.000000
 -0.149672  0.230435  0.010184     24.000000
 -0.137200  0.223234  0.005092     24.000000
 -0.124727  0.216033  0.000000     12.000000
  0.137200  0.079212 -0.112023      6.000000
  0.149672  0.072011 -0.117115     24.000000
  0.162145  0.064810 -0.122207     24.000000
  0.174618  0.057609 -0.127299     24.000000
 -0.162145  0.252039  0.010184     24.000000
 -0.149672  0.244838  0.005092     24.000000
 -0.137200  0.237637  0.000000     12.000000
  0.149672  0.086413 -0.122207      6.000000
  0.162145  0.079212 -0.127299     24.000000
  0.174618  0.072011 -0.132391     24.000000
 -0.162145  0.266441  0.005092     24.000000
 -0.149672  0.259240  0.000000     12.000000
  0.162145  0.093614 -0.132391      6.000000
  0.174618  0.086413 -0.137483     24.000000
 -0.162145  0.280843  0.000000     12.000000
  0.174618  0.100816 -0.142575      3.000000
  0.037418  0.007201 -0.010184     24.000000
  0.049891 -0.000000 -0.015276     48.000000
  0.062363 -0.007201 -0.020368     48.000000
  0.074836 -0.014402 -0.025460     48.000000
  0.087309 -0.021603 -0.030552     48.000000
  0.099781 -0.028804 -0.035644     48.000000
  0.112254 -0.036006 -0.040736     48.000000
  0.124727 -0.043207 -0.045828     48.000000
  0.137200 -0.050408 -0.050920     48.000000
  0.149672 -0.057609 -0.056011     48.000000
  0.162145 -0.064810 -0.061103     48.000000
  0.174618 -0.072011 -0.066195     48.000000
 -0.162145  0.122419  0.071287     24.000000
  0.049891  0.014402 -0.020368     24.000000
  0.062363  0.007201 -0.025460     48.000000
  0.074836 -0.000000 -0.030552     48.000000
  0.087309 -0.007201 -0.035644     48.000000
  0.099781 -0.014402 -0.040736     48.000000
  0.112254 -0.021603 -0.045828     48.000000
  0.124727 -0.028804 -0.050920     48.000000
  0.137200 -0.036006 -0.056011     48.000000
  0.149672 -0.043207 -0.061103     48.000000
  0.162145 -0.050408 -0.066195     48.000000
  0.174618 -0.057609 -0.071287     48.000000
 -0.162145  0.136821  0.066195     48.000000
 -0.149672  0.129620  0.061103     48.000000
 -0.137200  0.122419  0.056011     48.000000
 -0.124727  0.115218  0.050920     48.000000
 -0.112254  0.108017  0.045828     48.000000
 -0.099781  0.100816  0.040736     48.000000
 -0.087309  0.093614  0.035644     48.000000
 -0.074836  0.086413  0.030552     48.000000
 -0.062363  0.079212  0.025460     48.000000
 -0.049891  0.072011  0.020368     48.000000
 -0.037418  0.064810  0.015276     48.000000
 -0.024945  0.057609  0.010184     24.000000
  0.062363  0.021603 -0.030552     24.000000
  0.074836  0.014402 -0.035644     48.000000
  0.087309  0.007201 -0.040736     48.000000
  0.099781  0.000000 -0.045828     48.000000
  0.112254 -0.007201 -0.050920     48.000000
  0.124727 -0.014402 -0.056011     48.000000
  0.137200 -0.021603 -0.061103     48.000000
  0.149672 -0.028804 -0.066195     48.000000
  0.162145 -0.036006 -0.071287     48.000000
  0.174618 -0.043207 -0.076379     48.000000
 -0.162145  0.151223  0.061103     48.000000
 -0.149672  0.144022  0.056011     48.000000
 -0.137200  0.136821  0.050920     48.000000
 -0.124727  0.129620  0.045828     48.000000
 -0.112254  0.122419  0.040736     48.000000
 -0.099781  0.115218  0.035644     48.000000
 -0.087309  0.108017  0.030552     48.000000
 -0.074836  0.100816  0.025460     48.000000
 -0.062363  0.093614  0.020368     48.000000
 -0.049891  0.086413  0.015276     48.000000
 -0.037418  0.079212  0.010184     24.000000
  0.074836  0.028804 -0.040736     24.000000
  0.087309  0.021603 -0.045828     48.000000
  0.099781  0.014402 -0.050920     48.000000
  0.112254  0.007201 -0.056011     48.000000
  0.124727  0.000000 -0.061103     48.000000
  0.137200 -0.007201 -0.066195     48.000000
  0.149672 -0.014402 -0.071287     48.000000
  0.162145 -0.021603 -0.076379     48.000000
  0.174618 -0.028804 -0.081471     48.000000
 -0.162145  0.165625  0.056011     48.000000
 -0.149672  0.158424  0.050920     48.000000
 -0.137200  0.151223  0.045828     48.000000
 -0.124727  0.144022  0.040736     48.000000
 -0.112254  0.136821  0.035644     48.000000
 -0.099781  0.129620  0.030552     48.000000
 -0.087309  0.122419  0.025460     48.000000
 -0.074836  0.115218  0.020368     48.000000
 -0.062363  0.108017  0.015276     48.000000
 -0.049891  0.100816  0.010184     24.000000
  0.087309  0.036006 -0.050920     24.000000
  0.099781  0.028804 -0.056011     48.000000
  0.112254  0.021603 -0.061103     48.000000
  0.124727  0.014402 -0.066195     48.000000
  0.137200  0.007201 -0.071287     48.000000
  0.149672  0.000000 -0.076379     48.000000
  0.162145 -0.007201 -0.081471     48.000000
  0.174618 -0.014402 -0.086563     48.000000
 -0.162145  0.180028  0.050920     48.000000
 -0.149672  0.172827  0.045828     48.000000
 -0.137200  0.165625  0.040736     48.000000
 -0.124727  0.158424  0.035644     48.000000
 -0.112254  0.151223  0.030552     48.000000
 -0.099781  0.144022  0.025460     48.000000
 -0.087309  0.136821  0.020368     48.000000
 -0.074836  0.129620  0.015276     48.000000
 -0.062363  0.122419  0.010184     24.000000
  0.099781  0.043207 -0.061103     24.000000
  0.112254  0.036006 -0.066195     48.000000
  0.124727  0.028804 -0.071287     48.000000
  0.137200  0.021603 -0.076379     48.000000
  0.149672  0.014402 -0.081471     48.000000
  0.162145  0.007201 -0.086563     48.000000
  0.174618  0.000000 -0.091655     48.000000
 -0.162145  0.194430  0.045828     48.000000
 -0.149672  0.187229  0.040736     48.000000
 -0.137200  0.180028  0.035644     48.000000
 -0.124727  0.172827  0.030552     48.000000
 -0.112254  0.165625  0.025460     48.000000
 -0.099781  0.158424  0.020368     48.000000
 -0.087309  0.151223  0.015276     48.000000
 -0.074836  0.144022  0.010184     24.000000
  0.112254  0.050408 -0.071287     24.000000
  0.124727  0.043207 -0.076379     48.000000
  0.137200  0.036006 -0.081471     48.000000
  0.149672  0.028804 -0.086563     48.000000
  0.162145  0.021603 -0.091655     48.000000
  0.174618  0.014402 -0.096747     48.000000
 -0.162145  0.208832  0.040736     48.000000
 -0.149672  0.201631  0.035644     48.000000
 -0.137200  0.194430  0.030552     48.000000
 -0.124727  0.187229  0.025460     48.000000
 -0.112254  0.180028  0.020368     48.000000
 -0.099781  0.172827  0.015276     48.000000
 -0.087309  0.165625  0.010184     24.000000
  0.124727  0.057609 -0.081471     24.000000
  0.137200  0.050408 -0.086563     48.000000
  0.149672  0.043207 -0.091655     48.000000
  0.162145  0.036006 -0.096747     48.000000
  0.174618  0.028804 -0.101839     48.000000
 -0.162145  0.223234  0.035644     48.000000
 -0.149672  0.216033  0.030552     48.000000
 -0.137200  0.208832  0.025460     48.000000
 -0.124727  0.201631  0.020368     48.000000
 -0.112254  0.194430  0.015276     48.000000
 -0.099781  0.187229  0.010184     24.000000
  0.137200  0.064810 -0.091655     24.000000
  0.149672  0.057609 -0.096747     48.000000
  0.162145  0.050408 -0.101839     48.000000
  0.174618  0.043207 -0.106931     48.000000
 -0.162145  0.237637  0.030552     48.000000
 -0.149672  0.230435  0.025460     48.000000
 -0.137200  0.223234  0.020368     48.000000
 -0.124727  0.216033  0.015276     48.000000
 -0.112254  0.208832  0.010184     24.000000
  0.149672  0.072011 -0.101839     24.000000
  0.162145  0.064810 -0.106931     48.000000
  0.174618  0.057609 -0.112023     48.000000
 -0.162145  0.252039  0.025460     48.000000
 -0.149672  0.244838  0.020368     48.000000
 -0.137200  0.237637  0.015276     48.000000
 -0.124727  0.230435  0.010184     24.000000
  0.162145  0.079212 -0.112023     24.000000
  0.174618  0.072011 -0.117115     48.000000
 -0.162145  0.266441  0.020368     48.000000
 -0.149672  0.259240  0.015276     48.000000
 -0.137200  0.252039  0.010184     24.000000
  0.174618  0.086413 -0.122207     24.000000
 -0.162145  0.280843  0.015276     48.000000
 -0.149672  0.273642  0.010184     24.000000
 -0.162145  0.295245  0.010184     12.000000
  0.074836  0.014402 -0.020368     24.000000
  0.087309  0.007201 -0.025460     48.000000
  0.099781  0.000000 -0.030552     48.000000
  0.112254 -0.007201 -0.035644     48.000000
  0.124727 -0.014402 -0.040736     48.000000
  0.137200 -0.021603 -0.045828     48.000000
  0.149672 -0.028804 -0.050920     48.000000
  0.162145 -0.036006 -0.056011     48.000000
  0.174618 -0.043207 -0.061103     48.000000
 -0.162145  0.151223  0.076379     48.000000
 -0.149672  0.144022  0.071287     24.000000
  0.087309  0.021603 -0.030552     24.000000
  0.099781  0.014402 -0.035644     48.000000
  0.112254  0.007201 -0.040736     48.000000
  0.124727  0.000000 -0.045828     48.000000
  0.137200 -0.007201 -0.050920     48.000000
  0.149672 -0.014402 -0.056011     48.000000
  0.162145 -0.021603 -0.061103     48.000000
  0.174618 -0.028804 -0.066195     48.000000
 -0.162145  0.165625  0.071287     48.000000
 -0.149672  0.158424  0.066195     48.000000
 -0.137200  0.151223  0.061103     48.000000
 -0.124727  0.144022  0.056011     48.000000
 -0.112254  0.136821  0.050920     48.000000
 -0.099781  0.129620  0.045828     48.000000
 -0.087309  0.122419  0.040736     48.000000
 -0.074836  0.115218  0.035644     48.000000
 -0.062363  0.108017  0.030552     48.000000
 -0.049891  0.100816  0.025460     48.000000
 -0.037418  0.093614  0.020368     24.000000
  0.099781  0.028804 -0.040736     24.000000
  0.112254  0.021603 -0.045828     48.000000
  0.124727  0.014402 -0.050920     48.000000
  0.137200  0.007201 -0.056011     48.000000
  0.149672  0.000000 -0.061103     48.000000
  0.162145 -0.007201 -0.066195     48.000000
  0.174618 -0.014402 -0.071287     48.000000
 -0.162145  0.180028  0.066195     48.000000
 -0.149672  0.172827  0.061103     48.000000
 -0.137200  0.165625  0.056011     48.000000
 -0.124727  0.158424  0.050920     48.000000
 -0.112254  0.151223  0.045828     48.000000
 -0.099781  0.144022  0.040736     48.000000
 -0.087309  0.136821  0.035644     48.000000
 -0.074836  0.129620  0.030552     48.000000
 -0.062363  0.122419  0.025460     48.000000
 -0.049891  0.115218  0.020368     24.000000
  0.112254  0.036006 -0.050920     24.000000
  0.124727  0.028804 -0.056011     48.000000
  0.137200  0.021603 -0.061103     48.000000
  0.149672  0.014402 -0.066195     48.000000
  0.162145  0.007201 -0.071287     48.000000
  0.174618  0.000000 -0.076379     48.000000
 -0.162145  0.194430  0.061103     48.000000
 -0.149672  0.187229  0.056011     48.000000
 -0.137200  0.180028  0.050920     48.000000
 -0.124727  0.172827  0.045828     48.000000
 -0.112254  0.165625  0.040736     48.000000
 -0.099781  0.158424  0.035644     48.000000
 -0.087309  0.151223  0.030552     48.000000
 -0.074836  0.144022  0.025460     48.000000
 -0.062363  0.136821  0.020368     24.000000
  0.124727  0.043207 -0.061103     24.000000
  0.137200  0.036006 -0.066195     48.000000
  0.149672  0.028804 -0.071287     48.000000
  0.162145  0.021603 -0.076379     48.000000
  0.174618  0.014402 -0.081471     48.000000
 -0.162145  0.208832  0.056011     48.000000
 -0.149672  0.201631  0.050920     48.000000
 -0.137200  0.194430  0.045828     48.000000
 -0.124727  0.187229  0.040736     48.000000
 -0.112254  0.180028  0.035644     48.000000
 -0.099781  0.172827  0.030552     48.000000
 -0.087309  0.165625  0.025460     48.000000
 -0.074836  0.158424  0.020368     24.000000
  0.137200  0.050408 -0.071287     24.000000
  0.149672  0.043207 -0.076379     48.000000
  0.162145  0.036006 -0.081471     48.000000
  0.174618  0.028804 -0.086563     48.000000
 -0.162145  0.223234  0.050920     48.000000
 -0.149672  0.216033  0.045828     48.000000
 -0.137200  0.208832  0.040736     48.000000
 -0.124727  0.201631  0.035644     48.000000
 -0.112254  0.194430  0.030552     48.000000
 -0.099781  0.187229  0.025460     48.000000
 -0.087309  0.180028  0.020368     24.000000
  0.149672  0.057609 -0.081471     24.000000
  0.162145  0.050408 -0.086563     48.000000
  0.174618  0.043207 -0.091655     48.000000
 -0.162145  0.237637  0.045828     48.000000
 -0.149672  0.230435  0.040736     48.000000
 -0.137200  0.223234  0.035644     48.000000
 -0.124727  0.216033  0.030552     48.000000
 -0.112254  0.208832  0.025460     48.000000
 -0.099781  0.201631  0.020368     24.000000
  0.162145  0.064810 -0.091655     24.000000
  0.174618  0.057609 -0.096747     48.000000
 -0.162145  0.252039  0.040736     48.000000
 -0.149672  0.244838  0.035644     48.000000
 -0.137200  0.237637  0.030552     48.000000
 -0.124727  0.230435  0.025460     48.000000
 -0.112254  0.223234  0.020368     24.000000
  0.174618  0.072011 -0.101839     24.000000
 -0.162145  0.266441  0.035644     48.000000
 -0.149672  0.259240  0.030552     48.000000
 -0.137200  0.252039  0.025460     48.000000
 -0.124727  0.244838  0.020368     24.000000
 -0.162145  0.280843  0.030552     24.000000
 -0.149672  0.273642  0.025460     48.000000
 -0.137200  0.266441  0.020368     24.000000
 -0.149672  0.288044  0.020368     12.000000
  0.112254  0.021603 -0.030552     24.000000
  0.124727  0.014402 -0.035644     48.000000
  0.137200  0.007201 -0.040736     48.000000
  0.149672  0.000000 -0.045828     48.000000
  0.162145 -0.007201 -0.050920     48.000000
  0.174618 -0.014402 -0.056011     48.000000
 -0.162145  0.180028  0.081471     48.000000
 -0.149672  0.172827  0.076379     48.000000
 -0.137200  0.165625  0.071287     24.000000
  0.124727  0.028804 -0.040736     24.000000
  0.137200  0.021603 -0.045828     48.000000
  0.149672  0.014402 -0.050920     48.000000
  0.162145  0.007201 -0.056011     48.000000
  0.174618  0.000000 -0.061103     48.000000
 -0.162145  0.194430  0.076379     48.000000
 -0.149672  0.187229  0.071287     48.000000
 -0.137200  0.180028  0.066195     48.000000
 -0.124727  0.172827  0.061103     48.000000
 -0.112254  0.165625  0.056011     48.000000
 -0.099781  0.158424  0.050920     48.000000
 -0.087309  0.151223  0.045828     48.000000
 -0.074836  0.144022  0.040736     48.000000
 -0.062363  0.136821  0.035644     48.000000
 -0.049891  0.129620  0.030552     24.000000
  0.137200  0.036006 -0.050920     24.000000
  0.149672  0.028804 -0.056011     48.000000
  0.162145  0.021603 -0.061103     48.000000
  0.174618  0.014402 -0.066195     48.000000
 -0.162145  0.208832  0.071287     48.000000
 -0.149672  0.201631  0.066195     48.000000
 -0.137200  0.194430  0.061103     48.000000
 -0.124727  0.187229  0.056011     48.000000
 -0.112254  0.180028  0.050920     48.000000
 -0.099781  0.172827  0.045828     48.000000
 -0.087309  0.165625  0.040736     48.000000
 -0.074836  0.158424  0.035644     48.000000
 -0.062363  0.151223  0.030552     24.000000
  0.149672  0.043207 -0.061103     24.000000
  0.162145  0.036006 -0.066195     48.000000
  0.174618  0.028804 -0.071287     48.000000
 -0.162145  0.223234  0.066195     48.000000
 -0.149672  0.216033  0.061103     48.000000
 -0.137200  0.208832  0.056011     48.000000
 -0.124727  0.201631  0.050920     48.000000
 -0.112254  0.194430  0.045828     48.000000
 -0.099781  0.187229  0.040736     48.000000
 -0.087309  0.180028  0.035644     48.000000
 -0.074836  0.172827  0.030552     24.000000
  0.162145  0.050408 -0.071287     24.000000
  0.174618  0.043207 -0.076379     48.000000
 -0.162145  0.237637  0.061103     48.000000
 -0.149672  0.230435  0.056011     48.000000
 -0.137200  0.223234  0.050920     48.000000
 -0.124727  0.216033  0.045828     48.000000
 -0.112254  0.208832  0.040736     48.000000
 -0.099781  0.201631  0.035644     48.000000
 -0.087309  0.194430  0.030552     24.000000
  0.174618  0.057609 -0.081471     24.000000
 -0.162145  0.252039  0.056011     48.000000
 -0.149672  0.244838  0.050920     48.000000
 -0.137200  0.237637  0.045828     48.000000
 -0.124727  0.230435  0.040736     48.000000
 -0.112254  0.223234  0.035644     48.000000
 -0.099781  0.216033  0.030552     24.000000
 -0.162145  0.266441  0.050920     24.000000
 -0.149672  0.259240  0.045828     48.000000
 -0.137200  0.252039  0.040736     48.000000
 -0.124727  0.244838  0.035644     48.000000
 -0.112254  0.237637  0.030552     24.000000
 -0.149672  0.273642  0.040736     24.000000
 -0.137200  0.266441  0.035644     48.000000
 -0.124727  0.259240  0.030552     24.000000
 -0.137200  0.280843  0.030552     12.000000
  0.149672  0.028804 -0.040736     24.000000
  0.162145  0.021603 -0.045828     48.000000
  0.174618  0.014402 -0.050920     48.000000
 -0.162145  0.208832  0.086563     48.000000
 -0.149672  0.201631  0.081471     48.000000
 -0.137200  0.194430  0.076379     48.000000
 -0.124727  0.187229  0.071287     24.000000
  0.162145  0.036006 -0.050920     24.000000
  0.174618  0.028804 -0.056011     48.000000
 -0.162145  0.223234  0.081471     48.000000
 -0.149672  0.216033  0.076379     48.000000
 -0.137200  0.208832  0.071287     48.000000
 -0.124727  0.201631  0.066195     48.000000
 -0.112254  0.194430  0.061103     48.000000
 -0.099781  0.187229  0.056011     48.000000
 -0.087309  0.180028  0.050920     48.000000
 -0.074836  0.172827  0.045828     48.000000
 -0.062363  0.165625  0.040736     24.000000
  0.174618  0.043207 -0.061103     24.000000
 -0.162145  0.237637  0.076379     48.000000
 -0.149672  0.230435  0.071287     48.000000
 -0.137200  0.223234  0.066195     48.000000
 -0.124727  0.216033  0.061103     48.000000
 -0.112254  0.208832  0.056011     48.000000
 -0.099781  0.201631  0.050920     48.000000
 -0.087309  0.194430  0.045828     48.000000
 -0.074836  0.187229  0.040736     24.000000
 -0.162145  0.252039  0.071287     24.000000
 -0.149672  0.244838  0.066195     48.000000
 -0.137200  0.237637  0.061103     48.000000
 -0.124727  0.230435  0.056011     48.000000
 -0.112254  0.223234  0.050920     48.000000
 -0.099781  0.216033  0.045828     48.000000
 -0.087309  0.208832  0.040736     24.000000
 -0.149672  0.259240  0.061103     24.000000
 -0.137200  0.252039  0.056011     48.000000
 -0.124727  0.244838  0.050920     48.000000
 -0.112254  0.237637  0.045828     48.000000
 -0.099781  0.230435  0.040736     24.000000
 -0.137200  0.266441  0.050920     24.000000
 -0.124727  0.259240  0.045828     48.000000
 -0.112254  0.252039  0.040736     24.000000
 -0.124727  0.273642  0.040736     12.000000
 -0.162145  0.237637  0.091655     24.000000
 -0.149672  0.230435  0.086563     48.000000
 -0.137200  0.223234  0.081471     48.000000
 -0.124727  0.216033  0.076379     48.000000
 -0.112254  0.208832  0.071287     24.000000
 -0.149672  0.244838  0.081471     24.000000
 -0.137200  0.237637  0.076379     48.000000
 -0.124727  0.230435  0.071287     48.000000
 -0.112254  0.223234  0.066195     48.000000
 -0.099781  0.216033  0.061103     48.000000
 -0.087309  0.208832  0.056011     48.000000
 -0.074836  0.201631  0.050920     24.000000
 -0.137200  0.252039  0.071287     24.000000
 -0.124727  0.244838  0.066195     48.000000
 -0.112254  0.237637  0.061103     48.000000
 -0.099781  0.230435  0.056011     48.000000
 -0.087309  0.223234  0.050920     24.000000
 -0.124727  0.259240  0.061103     24.000000
 -0.112254  0.252039  0.056011     48.000000
 -0.099781  0.244838  0.050920     24.000000
 -0.112254  0.266441  0.050920     12.000000
 -0.124727  0.244838  0.081471     24.000000
 -0.112254  0.237637  0.076379     48.000000
 -0.099781  0.230435  0.071287     24.000000
 -0.112254  0.252039  0.071287     24.000000
 -0.099781  0.244838  0.066195     48.000000
 -0.087309  0.237637  0.061103     24.000000
 -0.099781  0.259240  0.061103     12.000000
 -0.087309  0.252039  0.071287      6.000000
 


--------------------------------------------------------------------------------------------------------




 Dimension of arrays:
   k-points           NKPTS =    624   k-points in BZ     NKDIM =    624   number of bands    NBANDS=      5
   number of dos      NEDOS =    301   number of ions     NIONS =      1
   non local maximal  LDIM  =      4   non local SUM 2l+1 LMDIM =      8
   total plane-waves  NPLWV =   2744
   max r-space proj   IRMAX =      1   max aug-charges    IRDMAX=   6632
   dimension x,y,z NGX =    14 NGY =   14 NGZ =   14
   dimension x,y,z NGXF=    28 NGYF=   28 NGZF=   28
   support grid    NGXF=    28 NGYF=   28 NGZF=   28
   ions per type =               1
   NGX,Y,Z   is equivalent  to a cutoff of   8.13,  8.13,  8.13 a.u.
   NGXF,Y,Z  is equivalent  to a cutoff of  16.26, 16.26, 16.26 a.u.

 SYSTEM =  Al atom                                 
 POSCAR =  Al                                      

 Startparameter for this run:
   NWRITE =      2    write-flag & timer
   PREC   = normal    normal or accurate (medium, high low for compatibility)
   ISTART =      1    job   : 0-new  1-cont  2-samecut
   ICHARG =      0    charge: 1-file 2-atom 10-const
   ISPIN  =      1    spin polarized calculation?
   LNONCOLLINEAR =      F non collinear calculations
   LSORBIT =      F    spin-orbit coupling
   INIWAV =      1    electr: 0-lowe 1-rand  2-diag
   LASPH  =      F    aspherical Exc in radial PAW
 Electronic Relaxation 1
   ENCUT  =  400.0 eV  29.40 Ry    5.42 a.u.   4.67  4.67  4.67*2*pi/ulx,y,z
   ENINI  =  400.0     initial cutoff
   ENAUG  =  291.1 eV  augmentation charge cutoff
   NELM   =     60;   NELMIN=  2; NELMDL=  0     # of ELM steps 
   EDIFF  = 0.1E-03   stopping-criterion for ELM
   LREAL  =      F    real-space projection
   NLSPLINE    = F    spline interpolate recip. space projectors
   LCOMPAT=      F    compatible to vasp.4.4
   GGA_COMPAT  = T    GGA compatible to vasp.4.4-vasp.4.6
   LMAXPAW     = -100 max onsite density
   LMAXMIX     =    2 max onsite mixed and CHGCAR
   VOSKOWN=      0    Vosko Wilk Nusair interpolation
   ROPT   =    0.00000
 Ionic relaxation
   EDIFFG = 0.1E-02   stopping-criterion for IOM
   NSW    =      0    number of steps for IOM
   NBLOCK =      1;   KBLOCK =      1    inner block; outer block 
   IBRION =     -1    ionic relax: 0-MD 1-quasi-New 2-CG
   NFREE  =      0    steps in history (QN), initial steepest desc. (CG)
   ISIF   =      2    stress and relaxation
   IWAVPR =     10    prediction:  0-non 1-charg 2-wave 3-comb
   ISYM   =      2    0-nonsym 1-usesym 2-fastsym
   LCORR  =      T    Harris-Foulkes like correction to forces

   POTIM  = 0.5000    time-step for ionic-motion
   TEIN   =    0.0    initial temperature
   TEBEG  =    0.0;   TEEND  =   0.0 temperature during run
   SMASS  =  -3.00    Nose mass-parameter (am)
   estimated Nose-frequenzy (Omega)   =  0.10E-29 period in steps = 0.13E+47 mass=  -0.187E-27a.u.
   SCALEE = 1.0000    scale energy and forces
   NPACO  =    256;   APACO  = 10.0  distance and # of slots for P.C.
   PSTRESS=    0.0 pullay stress

  Mass of Ions in am
   POMASS =  26.98
  Ionic Valenz
   ZVAL   =   3.00
  Atomic Wigner-Seitz radii
   RWIGS  =  -1.00
  virtual crystal weights 
   VCA    =   1.00
   NELECT =       3.0000    total number of electrons
   NUPDOWN=      -1.0000    fix difference up-down

 DOS related values:
   EMIN   =  10.00;   EMAX   =-10.00  energy-range for DOS
   EFERMI =   0.00;   METHOD = LEGACY      
   ISMEAR =    -5;   SIGMA  =   0.20  broadening in eV -4-tet -1-fermi 0-gaus

 Electronic relaxation 2 (details)
   IALGO  =     38    algorithm
   LDIAG  =      T    sub-space diagonalisation (order eigenvalues)
   LSUBROT=      F    optimize rotation matrix (better conditioning)
   TURBO    =      0    0=normal 1=particle mesh
   IRESTART =      0    0=no restart 2=restart with 2 vectors
   NREBOOT  =      0    no. of reboots
   NMIN     =      0    reboot dimension
   EREF     =   0.00    reference energy to select bands
   IMIX   =      4    mixing-type and parameters
     AMIX     =   0.40;   BMIX     =  1.00
     AMIX_MAG =   1.60;   BMIX_MAG =  1.00
     AMIN     =   0.10
     WC   =   100.;   INIMIX=   1;  MIXPRE=   1;  MAXMIX= -45

 Intra band minimization:
   WEIMIN = 0.0000     energy-eigenvalue tresh-hold
   EBREAK =  0.50E-05  absolut break condition
   DEPER  =   0.30     relativ break condition  

   TIME   =   0.40     timestep for ELM

  volume/ion in A,a.u.               =      16.60       112.03
  Fermi-wavevector in a.u.,A,eV,Ry     =   0.925561  1.749056 11.655602  0.856663
  Thomas-Fermi vector in A             =   2.051428

 Write flags
   LWAVE        =      T    write WAVECAR
   LDOWNSAMPLE  =      F    k-point downsampling of WAVECAR
   LCHARG       =      F    write CHGCAR
   LVTOT        =      F    write LOCPOT, total local potential
   LVHAR        =      F    write LOCPOT, Hartree potential only
   LELF         =      F    write electronic localiz. function (ELF)
   LORBIT       =      0    0 simple, 1 ext, 2 COOP (PROOUT), +10 PAW based schemes


 Dipole corrections
   LMONO  =      F    monopole corrections only (constant potential shift)
   LDIPOL =      F    correct potential (dipole corrections)
   IDIPOL =      0    1-x, 2-y, 3-z, 4-all directions 
   EPSILON=  1.0000000 bulk dielectric constant

 Exchange correlation treatment:
   GGA     =    --    GGA type
   LEXCH   =     8    internal setting for exchange type
   LIBXC   =     F    Libxc                    
   VOSKOWN =     0    Vosko Wilk Nusair interpolation
   LHFCALC =     F    Hartree Fock is set to
   LHFONE  =     F    Hartree Fock one center treatment
   AEXX    =    0.0000 exact exchange contribution

 Linear response parameters
   LEPSILON=     F    determine dielectric tensor
   LRPA    =     F    only Hartree local field effects (RPA)
   LNABLA  =     F    use nabla operator in PAW spheres
   LVEL    =     F    velocity operator in full k-point grid
   CSHIFT  =0.1000    complex shift for real part using Kramers Kronig
   OMEGAMAX=  -1.0    maximum frequency
   DEG_THRESHOLD= 0.2000000E-02 threshold for treating states as degnerate
   RTIME   =   -0.100 relaxation time in fs
  (WPLASMAI=    0.000 imaginary part of plasma frequency in eV, 0.658/RTIME)
   DFIELD  = 0.0000000 0.0000000 0.0000000 field for delta impulse in time

  Optional k-point grid parameters
   LKPOINTS_OPT  =     F    use optional k-point grid
   KPOINTS_OPT_MODE=     1    mode for optional k-point grid

 Orbital magnetization related:
   ORBITALMAG=     F  switch on orbital magnetization
   LCHIMAG   =     F  perturbation theory with respect to B field
   DQ        =  0.001000  dq finite difference perturbation B field
   LLRAUG    =     F  two centre corrections for induced B field
   LBONE     =     F  B-component reconstruction in AE one-centre
   LVGVCALC  =     T  calculate vGv susceptibility
   LVGVAPPL  =     F  apply vGv susceptibility instead of pGv for G=0

 Random number generation:
   RANDOM_GENERATOR = DEFAULT
   PCG_SEED         = not used


--------------------------------------------------------------------------------------------------------


 Static calculation
 charge density and potential will be updated during run
 non-spin polarized calculation
 Variant of blocked Davidson
 Davidson routine will perform the subspace rotation
 perform sub-space diagonalisation
    after iterative eigenvector-optimisation
 modified Broyden-mixing scheme, WC =      100.0
 initial mixing is a Kerker type mixing with AMIX =  0.4000 and BMIX =      1.0000
 Hartree-type preconditioning will be used
 using additional bands            3
 reciprocal scheme for non local part
 use partial core corrections
 calculate Harris-corrections to forces   (improved forces if not selfconsistent)
 use gradient corrections 
 use of overlap-Matrix (Vanderbilt PP)
 Fermi weights with tetrahedron method with Bloechl corrections


--------------------------------------------------------------------------------------------------------


  energy-cutoff  :      400.00
  volume of cell :       16.60
      direct lattice vectors                 reciprocal lattice vectors
     2.863400000  0.000000000  0.000000000     0.349235175 -0.201631022 -0.142574663
     1.431700000  2.479777141  0.000000000     0.000000000  0.403262045 -0.142574663
     1.431700000  0.826592380  2.337956310     0.000000000  0.000000000  0.427723989

  length of vectors
     2.863400000  2.863400000  2.863400000     0.427723989  0.427723989  0.427723989



 old parameters found on file WAVECAR:
  energy-cutoff  :      400.00
  volume of cell :       16.60
      direct lattice vectors                 reciprocal lattice vectors
     2.863400000  0.000000000  0.000000000     0.349235175 -0.201631022 -0.142574663
     1.431700000  2.479777141  0.000000000     0.000000000  0.403262045 -0.142574663
     1.431700000  0.826592380  2.337956310     0.000000000  0.000000000  0.427723989

  length of vectors


 k-points in units of 2pi/SCALE and weight: Al Atom   # System label                
   0.00000000  0.00000000  0.00000000       0.000
   0.01247268 -0.00720111 -0.00509195       0.000
   0.02494537 -0.01440222 -0.01018390       0.000
   0.03741805 -0.02160332 -0.01527586       0.000
   0.04989074 -0.02880443 -0.02036781       0.000
   0.06236342 -0.03600554 -0.02545976       0.000
   0.07483611 -0.04320665 -0.03055171       0.000
   0.08730879 -0.05040776 -0.03564367       0.000
   0.09978148 -0.05760886 -0.04073562       0.000
   0.11225416 -0.06480997 -0.04582757       0.000
   0.12472685 -0.07201108 -0.05091952       0.000
   0.13719953 -0.07921219 -0.05601147       0.000
   0.14967222 -0.08641330 -0.06110343       0.000
   0.16214490 -0.09361440 -0.06619538       0.000
   0.17461759 -0.10081551 -0.07128733       0.000
   0.01247268  0.00720111 -0.01018390       0.000
   0.02494537  0.00000000 -0.01527586       0.001
   0.03741805 -0.00720111 -0.02036781       0.001
   0.04989074 -0.01440222 -0.02545976       0.001
   0.06236342 -0.02160332 -0.03055171       0.001
   0.07483611 -0.02880443 -0.03564367       0.001
   0.08730879 -0.03600554 -0.04073562       0.001
   0.09978148 -0.04320665 -0.04582757       0.001
   0.11225416 -0.05040776 -0.05091952       0.001
   0.12472685 -0.05760886 -0.05601147       0.001
   0.13719953 -0.06480997 -0.06110343       0.001
   0.14967222 -0.07201108 -0.06619538       0.001
   0.16214490 -0.07921219 -0.07128733       0.001
   0.17461759 -0.08641330 -0.07637928       0.001
  -0.16214490  0.10801662  0.06110343       0.001
  -0.14967222  0.10081551  0.05601147       0.001
  -0.13719953  0.09361440  0.05091952       0.001
  -0.12472685  0.08641330  0.04582757       0.001
  -0.11225416  0.07921219  0.04073562       0.001
  -0.09978148  0.07201108  0.03564367       0.001
  -0.08730879  0.06480997  0.03055171       0.001
  -0.07483611  0.05760886  0.02545976       0.001
  -0.06236342  0.05040776  0.02036781       0.001
  -0.04989074  0.04320665  0.01527586       0.001
  -0.03741805  0.03600554  0.01018390       0.001
  -0.02494537  0.02880443  0.00509195       0.001
  -0.01247268  0.02160332  0.00000000       0.001
   0.02494537  0.01440222 -0.02036781       0.000
   0.03741805  0.00720111 -0.02545976       0.001
   0.04989074 -0.00000000 -0.03055171       0.001
   0.06236342 -0.00720111 -0.03564367       0.001
   0.07483611 -0.01440222 -0.04073562       0.001
   0.08730879 -0.02160332 -0.04582757       0.001
   0.09978148 -0.02880443 -0.05091952       0.001
   0.11225416 -0.03600554 -0.05601147       0.001
   0.12472685 -0.04320665 -0.06110343       0.001
   0.13719953 -0.05040776 -0.06619538       0.001
   0.14967222 -0.05760886 -0.07128733       0.001
   0.16214490 -0.06480997 -0.07637928       0.001
   0.17461759 -0.07201108 -0.08147124       0.001
  -0.16214490  0.12241883  0.05601147       0.001
  -0.14967222  0.11521773  0.05091952       0.001
  -0.13719953  0.10801662  0.04582757       0.001
  -0.12472685  0.10081551  0.04073562       0.001
  -0.11225416  0.09361440  0.03564367       0.001
  -0.09978148  0.08641330  0.03055171       0.001
  -0.08730879  0.07921219  0.02545976       0.001
  -0.07483611  0.07201108  0.02036781       0.001
  -0.06236342  0.06480997  0.01527586       0.001
  -0.04989074  0.05760886  0.01018390       0.001
  -0.03741805  0.05040776  0.00509195       0.001
  -0.02494537  0.04320665  0.00000000       0.001
   0.03741805  0.02160332 -0.03055171       0.000
   0.04989074  0.01440222 -0.03564367       0.001
   0.06236342  0.00720111 -0.04073562       0.001
   0.07483611 -0.00000000 -0.04582757       0.001
   0.08730879 -0.00720111 -0.05091952       0.001
   0.09978148 -0.01440222 -0.05601147       0.001
   0.11225416 -0.02160332 -0.06110343       0.001
   0.12472685 -0.02880443 -0.06619538       0.001
   0.13719953 -0.03600554 -0.07128733       0.001
   0.14967222 -0.04320665 -0.07637928       0.001
   0.16214490 -0.05040776 -0.08147124       0.001
   0.17461759 -0.05760886 -0.08656319       0.001
  -0.16214490  0.13682105  0.05091952       0.001
  -0.14967222  0.12961994  0.04582757       0.001
  -0.13719953  0.12241883  0.04073562       0.001
  -0.12472685  0.11521773  0.03564367       0.001
  -0.11225416  0.10801662  0.03055171       0.001
  -0.09978148  0.10081551  0.02545976       0.001
  -0.08730879  0.09361440  0.02036781       0.001
  -0.07483611  0.08641330  0.01527586       0.001
  -0.06236342  0.07921219  0.01018390       0.001
  -0.04989074  0.07201108  0.00509195       0.001
  -0.03741805  0.06480997  0.00000000       0.001
   0.04989074  0.02880443 -0.04073562       0.000
   0.06236342  0.02160332 -0.04582757       0.001
   0.07483611  0.01440222 -0.05091952       0.001
   0.08730879  0.00720111 -0.05601147       0.001
   0.09978148  0.00000000 -0.06110343       0.001
   0.11225416 -0.00720111 -0.06619538       0.001
   0.12472685 -0.01440222 -0.07128733       0.001
   0.13719953 -0.02160332 -0.07637928       0.001
   0.14967222 -0.02880443 -0.08147124       0.001
   0.16214490 -0.03600554 -0.08656319       0.001
   0.17461759 -0.04320665 -0.09165514       0.001
  -0.16214490  0.15122327  0.04582757       0.001
[...]
      1       2.9709      2.00000
      2       8.4125     -0.19983
      3       9.8792      0.00000
      4      12.8488      0.00000
      5      22.1878      0.00000

 k-point   580 :      -0.4643    0.3929    0.1429
  band No.  band energies     occupation 
      1       3.0081      2.00000
      2       9.6434      0.00000
      3      10.3518      0.00000
      4      11.2660      0.00000
      5      19.1656      0.00000

 k-point   581 :      -0.4286    0.3929    0.1429
  band No.  band energies     occupation 
      1       3.6933      2.00000
      2       8.8986      0.00000
      3       9.8842      0.00000
      4      10.9385      0.00000
      5      19.6757      0.00000

 k-point   582 :      -0.3929    0.3929    0.1429
  band No.  band energies     occupation 
      1       4.4344      2.00000
      2       7.9764      0.94129
      3       9.4875      0.00000
      4      10.9024      0.00000
      5      20.0166      0.00000

 k-point   583 :      -0.3571    0.3929    0.1429
  band No.  band energies     occupation 
      1       5.2229      2.00000
      2       7.0411      2.01286
      3       9.1409      0.00000
      4      11.0261      0.00000
      5      20.3116      0.00000

 k-point   584 :      -0.3214    0.3929    0.1429
  band No.  band energies     occupation 
      1       5.9745      2.00000
      2       6.2064      2.00000
      3       8.8749      0.00000
      4      11.2516      0.00000
      5      20.6201      0.00000

 k-point   585 :      -0.2857    0.3929    0.1429
  band No.  band energies     occupation 
      1       5.2575      2.00000
      2       6.8681      2.00000
      3       8.7468      0.00000
      4      11.5578      0.00000
      5      20.9635      0.00000

 k-point   586 :      -0.2500    0.3929    0.1429
  band No.  band energies     occupation 
      1       4.4534      2.00000
      2       7.4800      2.01279
      3       8.9300      0.00000
      4      11.9362      0.00000
      5      21.3484      0.00000

 k-point   587 :      -0.4286    0.4286    0.1429
  band No.  band energies     occupation 
      1       3.9991      2.00000
      2       9.0408     -0.01603
      3       9.4311      0.00000
      4      10.9779      0.00000
      5      18.9593      0.00000

 k-point   588 :      -0.3929    0.4286    0.1429
  band No.  band energies     occupation 
      1       4.7065      2.00000
      2       8.5284     -0.24612
      3       8.8067      0.00000
      4      10.7155      0.00000
      5      19.5123      0.00000

 k-point   589 :      -0.3571    0.4286    0.1429
  band No.  band energies     occupation 
      1       5.4487      2.00000
      2       7.7951      1.85767
      3       8.3142     -0.03852
      4      10.7491      0.00000
      5      19.8961      0.00000

 k-point   590 :      -0.3214    0.4286    0.1429
  band No.  band energies     occupation 
      1       6.1739      2.00000
      2       6.9303      2.00000
      3       8.0687      0.06656
      4      10.9290      0.00000
      5      20.2330      0.00000

 k-point   591 :      -0.2857    0.4286    0.1429
  band No.  band energies     occupation 
      1       6.0693      2.00000
      2       6.7179      2.00000
      3       8.1514     -0.00102
      4      11.2043      0.00000
      5      20.5816      0.00000

 k-point   592 :      -0.3929    0.4643    0.1429
  band No.  band energies     occupation 
      1       5.0196      2.00000
      2       7.7996      1.40265
      3       9.3038      0.00000
      4      10.8328      0.00000
      5      18.8351      0.00000

 k-point   593 :      -0.3571    0.4643    0.1429
  band No.  band energies     occupation 
      1       5.6681      2.00000
      2       7.4716      2.05993
      3       8.6705     -0.02280
      4      10.6179      0.00000
      5      19.4302      0.00000

 k-point   594 :      -0.3214    0.4643    0.1429
  band No.  band energies     occupation 
      1       6.1258      2.00000
      2       7.3957      2.00000
      3       7.9197      0.50819
      4      10.7013      0.00000
      5      19.8556      0.00000

 k-point   595 :      -0.3571    0.5000    0.1429
  band No.  band energies     occupation 
      1       5.7033      2.00000
      2       7.0406      2.00000
      3       9.2613      0.00000
      4      10.7862      0.00000
      5      18.7934      0.00000

 k-point   596 :      -0.4643    0.3571    0.1786
  band No.  band energies     occupation 
      1       2.4849      2.00000
      2       9.1338      0.00000
      3      10.5746      0.00000
      4      12.4126      0.00000
      5      21.0077      0.00000

 k-point   597 :      -0.4286    0.3571    0.1786
  band No.  band energies     occupation 
      1       3.1774      2.00000
      2       8.3977      0.00109
      3      10.2646      0.00000
      4      11.9074      0.00000
      5      21.4941      0.00000

 k-point   598 :      -0.3929    0.3571    0.1786
  band No.  band energies     occupation 
      1       3.9298      2.00000
      2       7.4755      2.05087
      3      10.2490      0.00000
      4      11.4774      0.00000
      5      21.7894      0.00000

 k-point   599 :      -0.3571    0.3571    0.1786
  band No.  band energies     occupation 
      1       4.7375      2.00000
      2       6.5357      2.00000
      3      10.3439      0.00000
      4      11.1446      0.00000
      5      22.0197      0.00000

 k-point   600 :      -0.3214    0.3571    0.1786
  band No.  band energies     occupation 
      1       5.4868      2.00000
      2       5.7391      2.00000
      3      10.4166      0.00000
      4      10.9958      0.00000
      5      22.1469      0.00000

 k-point   601 :      -0.4286    0.3929    0.1786
  band No.  band energies     occupation 
      1       3.4040      2.00000
      2       8.8368      0.00000
      3      10.1727      0.00000
      4      11.0468      0.00000
      5      20.7249      0.00000

 k-point   602 :      -0.3929    0.3929    0.1786
  band No.  band energies     occupation 
      1       4.1305      2.00000
      2       8.1403      0.45155
      3       9.8724      0.00000
      4      10.6204      0.00000
      5      21.2583      0.00000

 k-point   603 :      -0.3571    0.3929    0.1786
  band No.  band energies     occupation 
      1       4.9111      2.00000
      2       7.2593      2.13001
      3       9.7517      0.00000
      4      10.3894      0.00000
      5      21.6089      0.00000

 k-point   604 :      -0.3214    0.3929    0.1786
  band No.  band energies     occupation 
      1       5.7269      2.00000
      2       6.3733      2.00000
      3       9.5720      0.00000
      4      10.4334      0.00000
      5      21.9134      0.00000

 k-point   605 :      -0.2857    0.3929    0.1786
  band No.  band energies     occupation 
      1       5.4686      2.00000
      2       6.6245      2.00000
      3       9.3910      0.00000
      4      10.6624      0.00000
      5      22.2237      0.00000

 k-point   606 :      -0.2500    0.3929    0.1786
  band No.  band energies     occupation 
      1       4.6527      2.00000
      2       7.4619      2.07253
      3       9.3215      0.00000
      4      10.9984      0.00000
      5      22.5388      0.00000

 k-point   607 :      -0.2143    0.3929    0.1786
  band No.  band energies     occupation 
      1       3.8862      2.00000
      2       8.1157      0.69627
      3       9.5505      0.00000
      4      11.4162      0.00000
      5      22.8706      0.00000

 k-point   608 :      -0.3929    0.4286    0.1786
  band No.  band energies     occupation 
      1       4.3912      2.00000
      2       8.6247     -0.08474
      3       9.3353      0.00000
      4      10.2879      0.00000
      5      20.5213      0.00000

 k-point   609 :      -0.3571    0.4286    0.1786
  band No.  band energies     occupation 
      1       5.1386      2.00000
      2       7.9629      1.21716
      3       8.9706      0.00000
      4      10.0338      0.00000
      5      21.0991      0.00000

 k-point   610 :      -0.3214    0.4286    0.1786
  band No.  band energies     occupation 
      1       5.9172      2.00000
      2       7.1234      2.00017
      3       8.7005      0.00000
      4      10.0769      0.00000
      5      21.4960      0.00000

 k-point   611 :      -0.2857    0.4286    0.1786
  band No.  band energies     occupation 
      1       6.2430      2.00000
      2       6.7051      2.00000
      3       8.5435      0.00000
      4      10.2852      0.00000
      5      21.8464      0.00000

 k-point   612 :      -0.2500    0.4286    0.1786
  band No.  band energies     occupation 
      1       5.4295      2.00000
      2       7.2682      2.00000
      3       8.6853      0.00000
      4      10.5993      0.00000
      5      22.2039      0.00000

 k-point   613 :      -0.3571    0.4643    0.1786
  band No.  band energies     occupation 
      1       5.4064      2.00000
      2       8.1637      0.48145
      3       8.4974      0.00000
      4      10.0777      0.00000
      5      20.3985      0.00000

 k-point   614 :      -0.3214    0.4643    0.1786
  band No.  band energies     occupation 
      1       6.0931      2.00000
      2       7.7627      2.01171
      3       8.0269      0.03572
      4       9.8938      0.00000
      5      21.0191      0.00000

 k-point   615 :      -0.2857    0.4643    0.1786
  band No.  band energies     occupation 
      1       6.5910      2.00000
      2       7.0475      2.00000
      3       8.0018      0.04282
      4      10.0131      0.00000
      5      21.4577      0.00000

 k-point   616 :      -0.3214    0.5000    0.1786
  band No.  band energies     occupation 
      1       6.0836      2.00000
      2       7.4206      2.04574
      3       8.4551     -0.10379
      4      10.0214      0.00000
      5      20.3579      0.00000

 k-point   617 :      -0.3571    0.4286    0.2143
  band No.  band energies     occupation 
      1       4.8686      2.00000
      2       7.9038      1.53177
      3       9.2275      0.00000
      4      10.1481      0.00000
      5      22.1589      0.00000

 k-point   618 :      -0.3214    0.4286    0.2143
  band No.  band energies     occupation 
      1       5.6541      2.00000
      2       7.2902      2.00029
      3       9.0134      0.00000
      4       9.8200      0.00000
      5      22.7312      0.00000

 k-point   619 :      -0.2857    0.4286    0.2143
  band No.  band energies     occupation 
      1       6.3847      2.00000
      2       6.5766      2.00000
      3       9.0039      0.00000
      4       9.6889      0.00000
      5      22.9665      0.00000

 k-point   620 :      -0.3214    0.4643    0.2143
  band No.  band energies     occupation 
      1       5.8773      2.00000
      2       7.7767      2.04632
      3       8.5243     -0.03792
      4       9.4761      0.00000
      5      22.0384      0.00000

 k-point   621 :      -0.2857    0.4643    0.2143
  band No.  band energies     occupation 
      1       6.5997      2.00000
      2       7.1972      2.00000
      3       8.3291     -0.03825
      4       9.3226      0.00000
      5      22.6676      0.00000

 k-point   622 :      -0.2500    0.4643    0.2143
  band No.  band energies     occupation 
      1       6.4293      2.00000
      2       7.1412      2.00000
      3       8.4472      0.00000
      4       9.4720      0.00000
      5      23.0761      0.00000

 k-point   623 :      -0.2857    0.5000    0.2143
  band No.  band energies     occupation 
      1       6.5487      2.00000
      2       7.7343      2.00000
      3       7.8451      0.63135
      4       9.3615      0.00000
      5      21.9980      0.00000

 k-point   624 :      -0.2500    0.5000    0.2500
  band No.  band energies     occupation 
      1       7.0988      2.00000
      2       7.0988      2.00000
      3       8.1177      0.01176
      4       9.0097      0.00000
      5      23.7091      0.00000


--------------------------------------------------------------------------------------------------------


 soft charge-density along one line, spin component           1
         0         1         2         3         4         5         6         7         8         9
 total charge-density along one line

 pseudopotential strength for first ion, spin component:           1
  8.446  14.395   0.000  -0.000  -0.000   0.000  -0.000  -0.000
 14.395  24.534   0.000  -0.000  -0.000   0.000  -0.000  -0.000
  0.000   0.000   1.987   0.000   0.000   5.730   0.000   0.000
 -0.000  -0.000   0.000   1.987   0.000   0.000   5.730   0.000
 -0.000  -0.000   0.000   0.000   1.987   0.000   0.000   5.730
  0.000   0.000   5.730   0.000   0.000  16.436   0.000   0.000
 -0.000  -0.000   0.000   5.730   0.000   0.000  16.436   0.000
 -0.000  -0.000   0.000   0.000   5.730   0.000   0.000  16.436
 total augmentation occupancy for first ion, spin component:           1
  3.302  -0.804   0.000   0.000   0.000   0.000   0.000   0.000
 -0.804   0.263   0.000   0.000   0.000   0.000   0.000   0.000
  0.000   0.000   1.105   0.000   0.000  -0.072  -0.000  -0.000
  0.000   0.000   0.000   1.105   0.000  -0.000  -0.072  -0.000
  0.000   0.000   0.000   0.000   1.105  -0.000  -0.000  -0.072
  0.000   0.000  -0.072  -0.000  -0.000   0.005   0.000   0.000
  0.000   0.000  -0.000  -0.072  -0.000   0.000   0.005   0.000
  0.000   0.000  -0.000  -0.000  -0.072   0.000   0.000   0.005


------------------------ aborting loop because EDIFF is reached ----------------------------------------


    CHARGE:  cpu time      0.0236: real time      0.0236
    FORLOC:  cpu time      0.0001: real time      0.0001
    FORNL :  cpu time      0.0235: real time      0.0235
    STRESS:  cpu time      0.2158: real time      0.2158
    FORCOR:  cpu time      0.0035: real time      0.0035
    FORHAR:  cpu time      0.0007: real time      0.0007
    MIXING:  cpu time      0.0001: real time      0.0001
    OFIELD:  cpu time      0.0000: real time      0.0000

  FORCE on cell =-STRESS in cart. coord.  units (eV):
  Direction    XX          YY          ZZ          XY          YZ          ZX
  --------------------------------------------------------------------------------------
  Alpha Z    -0.20233    -0.20233    -0.20233
  Ewald     -24.45550   -24.45550   -24.45550    -0.00000     0.00000    -0.00000
  Hartree     0.03477     0.03477     0.03477     0.00000     0.00000     0.00000
  E(xc)      -8.54687    -8.54688    -8.54689     0.00001     0.00000     0.00001
  Local       0.32591     0.32591     0.32591    -0.00000    -0.00000    -0.00000
  n-local    18.22099    19.10598    19.21310     0.69505    -0.23161     0.24622
  augment    -1.03125    -1.03125    -1.03125     0.00000     0.00000     0.00000
  Kinetic    24.62664    13.17060     7.06681    -6.10741     1.31770   -10.81624
  Fock        0.00000     0.00000     0.00000     0.00000     0.00000     0.00000
  -------------------------------------------------------------------------------------
  Total      -0.07390    -0.07390    -0.07390    -0.00000     0.00000    -0.00000
  in kB      -7.13248    -7.13248    -7.13248    -0.00000     0.00000    -0.00000
  external pressure =       -7.13 kB  Pullay stress =        0.00 kB


 VOLUME and BASIS-vectors are now :
 -----------------------------------------------------------------------------
  energy-cutoff  :      400.00
  volume of cell :       16.60
      direct lattice vectors                 reciprocal lattice vectors
     2.863400000  0.000000000  0.000000000     0.349235175 -0.201631022 -0.142574663
     1.431700000  2.479777141  0.000000000     0.000000000  0.403262045 -0.142574663
     1.431700000  0.826592380  2.337956310     0.000000000  0.000000000  0.427723989

  length of vectors
     2.863400000  2.863400000  2.863400000     0.427723989  0.427723989  0.427723989


 FORCES acting on ions
    electron-ion (+dipol)            ewald-force                    non-local-force                 convergence-correction
 -----------------------------------------------------------------------------------------------
   -.157E-14 -.834E-15 -.171E-14   -.160E-15 0.348E-16 -.345E-16   -.103E-25 -.992E-26 0.447E-26   -.181E-16 0.554E-17 0.619E-17
 -----------------------------------------------------------------------------------------------
   -.157E-14 -.834E-15 -.171E-14   -.160E-15 0.348E-16 -.345E-16   -.103E-25 -.992E-26 0.447E-26   -.181E-16 0.554E-17 0.619E-17


 POSITION                                       TOTAL-FORCE (eV/Angst)
 -----------------------------------------------------------------------------------
      0.00000      0.00000      0.00000         0.000000      0.000000     -0.000000
 -----------------------------------------------------------------------------------
    total drift:                               -0.000000     -0.000000     -0.000000


--------------------------------------------------------------------------------------------------------



  FREE ENERGIE OF THE ION-ELECTRON SYSTEM (eV)
  ---------------------------------------------------
  free  energy   TOTEN  =        -3.74527675 eV

  energy  without entropy=       -3.74527675  energy(sigma->0) =       -3.74527675



--------------------------------------------------------------------------------------------------------


    POTLOK:  cpu time      0.0043: real time      0.0043


--------------------------------------------------------------------------------------------------------


 writing wavefunctions
     LOOP+:  cpu time      3.6748: real time      3.6799
 -----------------------------------------------------------------------------
|                                                                             |
|           W    W    AA    RRRRR   N    N  II  N    N   GGGG   !!!           |
|           W    W   A  A   R    R  NN   N  II  NN   N  G    G  !!!           |
|           W    W  A    A  R    R  N N  N  II  N N  N  G       !!!           |
|           W WW W  AAAAAA  RRRRR   N  N N  II  N  N N  G  GGG   !            |
|           WW  WW  A    A  R   R   N   NN  II  N   NN  G    G                |
|           W    W  A    A  R    R  N    N  II  N    N   GGGG   !!!           |
|                                                                             |
|     Tetrahedron method does not include variations of the Fermi             |
|     occupations, so forces and stress will be inaccurate. We suggest        |
|     using a different smearing scheme ISMEAR = 1 or 2 for metals in         |
|     relaxations.                                                            |
|                                                                             |
 -----------------------------------------------------------------------------

    4ORBIT:  cpu time      0.0000: real time      0.0000
 BZINTS: Fermi energy:    7.956550;    3.000000 electrons
         Band energy: 0.105890E+02;  BLOECHL correction:   -0.020755

 total amount of memory used by VASP MPI-rank0    46005. kBytes
=======================================================================

   base      :      30000. kBytes
   nonl-proj :       6472. kBytes
   fftplans  :        436. kBytes
   grid      :        608. kBytes
   one-center:          3. kBytes
   wavefun   :       8486. kBytes

  
  
 General timing and accounting informations for this job:
 ========================================================
  
                  Total CPU time used (sec):        4.450
                            User time (sec):        3.710
                          System time (sec):        0.740
                         Elapsed time (sec):        4.650
  
                   Maximum memory used (kb):       64168.
                   Average memory used (kb):          N/A
  
                          Minor page faults:         8790
                          Major page faults:            4
                 Voluntary context switches:         1164
