 vasp.6.4.2 20Jul23 (build Oct 18 2023 12:49:41) complex                         
 executed on             LinuxGNU date 2025.04.11  07:33:06
 running    2 mpi-ranks, with    1 threads/rank, on    1 nodes
 distrk:  each k-point on    2 cores,    1 groups
 distr:  one band on NCORE=   2 cores,    1 groups


--------------------------------------------------------------------------------------------------------


 INCAR:
   SYSTEM = Al
   ISMEAR = -5
   ENCUT = 900
   LCHARG = .FALSE.
   NCORE = 2
   NSIM = 1

 POTCAR:    PAW_PBE Al 04Jan2001                  
 POTCAR:    PAW_PBE Al 04Jan2001                  
   SHA256 =  17880443556af62b473fe41b62a467bd001ad55d2cabe504a3f22e34d4e9db96 Al/POTCAR             
   COPYR  = (c) Copyright 04Jan2001 Georg Kresse                                                    
   COPYR  = This file is part of the software VASP. Any use, copying, and all other rights are regul
   COPYR  = If you do not have a valid VASP license, you may not use, copy or distribute this file. 
   VRHFIN =Al: s2p1                                                                                 
   LEXCH  = PE                                                                                      
   EATOM  =    53.5387 eV,    3.9350 Ry                                                             
                                                                                                    
   TITEL  = PAW_PBE Al 04Jan2001                                                                    
   LULTRA =        F    use ultrasoft PP ?                                                          
   IUNSCR =        1    unscreen: 0-lin 1-nonlin 2-no                                               
   RPACOR =    1.500    partial core radius                                                         
   POMASS =   26.981; ZVAL   =    3.000    mass and valenz                                          
   RCORE  =    1.900    outmost cutoff radius                                                       
   RWIGS  =    2.650; RWIGS  =    1.402    wigner-seitz radius (au A)                               
   ENMAX  =  240.300; ENMIN  =  180.225 eV                                                          
   ICORE  =        2    local potential                                                             
   LCOR   =        T    correct aug charges                                                         
   LPAW   =        T    paw PP                                                                      
   EAUG   =  291.052                                                                                
   DEXC   =    0.000                                                                                
   RMAX   =    1.939    core radius for proj-oper                                                   
   RAUG   =    1.300    factor for augmentation sphere                                              
   RDEP   =    1.966    radius for radial grids                                                     
   RDEPT  =    1.856    core radius for aug-charge                                                  
                                                                                                    
   Atomic configuration                                                                             
    6 entries                                                                                       
     n  l   j            E        occ.                                                              
     1  0  0.50     -1511.1048   2.0000                                                             
     2  0  0.50      -108.1629   2.0000                                                             
     2  1  1.50       -69.6402   6.0000                                                             
     3  0  0.50        -7.7528   2.0000                                                             
     3  1  1.50        -2.7121   1.0000                                                             
     3  2  2.50        -2.7212   0.0000                                                             
   Description                                                                                      
     l       E           TYP  RCUT    TYP  RCUT                                                     
     0     -7.7528455     23  1.900                                                                 
     0     -3.3096929     23  1.900                                                                 
     1     -2.7120682     23  1.900                                                                 
     1     13.6058260     23  1.900                                                                 
     2     -2.7211652      7  1.900                                                                 
  local pseudopotential read in
  partial core-charges read in
  partial kinetic energy density read in
  atomic valenz-charges read in
  non local Contribution for L=           0  read in
    real space projection operators read in
  non local Contribution for L=           0  read in
    real space projection operators read in
  non local Contribution for L=           1  read in
    real space projection operators read in
  non local Contribution for L=           1  read in
    real space projection operators read in
    PAW grid and wavefunctions read in

   number of l-projection  operators is LMAX  =           4
   number of lm-projection operators is LMMAX =           8

  PAW_PBE Al 04Jan2001                  :
 energy of atom  1       EATOM=  -53.5387
 kinetic energy error for atom=    0.0001 (will be added to EATOM!!)


 POSCAR: Al
  positions in cartesian coordinates
  No initial velocities read in
 exchange correlation table for  LEXCH =        8
   RHO(1)=    0.500       N(1)  =     2000
   RHO(2)=  100.500       N(2)  =     4000



--------------------------------------------------------------------------------------------------------


 ion  position               nearest neighbor table
   1  0.000  0.000  0.000-

  LATTYP: Found a face centered cubic cell.
 ALAT       =     4.0494591145
  
  Lattice vectors:
  
 A1 = (   2.8634000000,   0.0000000000,   0.0000000000)
 A2 = (   1.4317000000,   2.4797771412,   0.0000000000)
 A3 = (   1.4317000000,   0.8265923804,   2.3379563098)


Analysis of symmetry for initial positions (statically):
=====================================================================
 Subroutine PRICEL returns:
 Original cell was already a primitive cell.
 

 Routine SETGRP: Setting up the symmetry group for a 
 face centered cubic supercell.


 Subroutine GETGRP returns: Found 48 space group operations
 (whereof 48 operations were pure point group operations)
 out of a pool of 48 trial point group operations.


The static configuration has the point symmetry O_h .


Analysis of symmetry for dynamics (positions and initial velocities):
=====================================================================
 Subroutine PRICEL returns:
 Original cell was already a primitive cell.
 

 Routine SETGRP: Setting up the symmetry group for a 
 face centered cubic supercell.


 Subroutine GETGRP returns: Found 48 space group operations
 (whereof 48 operations were pure point group operations)
 out of a pool of 48 trial point group operations.


The dynamic configuration has the point symmetry O_h .


 Subroutine INISYM returns: Found 48 space group operations
 (whereof 48 operations are pure point group operations),
 and found     1 'primitive' translations


----------------------------------------------------------------------------------------

                                     Primitive cell                                     

  volume of cell :      16.6009

  direct lattice vectors                    reciprocal lattice vectors
     2.863400000  0.000000000  0.000000000     0.349235175 -0.201631022 -0.142574663
     1.431700000  2.479777141  0.000000000     0.000000000  0.403262045 -0.142574663
     1.431700000  0.826592380  2.337956310     0.000000000  0.000000000  0.427723989

  length of vectors
     2.863400000  2.863400000  2.863400000     0.427723989  0.427723989  0.427723989

  position of ions in fractional coordinates (direct lattice)
     0.000000000  0.000000000  0.000000000

  ion indices of the primitive-cell ions
   primitive index   ion index
                 1           1

----------------------------------------------------------------------------------------


 -----------------------------------------------------------------------------
|                                                                             |
|           W    W    AA    RRRRR   N    N  II  N    N   GGGG   !!!           |
|           W    W   A  A   R    R  NN   N  II  NN   N  G    G  !!!           |
|           W    W  A    A  R    R  N N  N  II  N N  N  G       !!!           |
|           W WW W  AAAAAA  RRRRR   N  N N  II  N  N N  G  GGG   !            |
|           WW  WW  A    A  R   R   N   NN  II  N   NN  G    G                |
|           W    W  A    A  R    R  N    N  II  N    N   GGGG   !!!           |
|                                                                             |
|     The requested file  could not be found or opened for reading            |
|     k-point information. Automatic k-point generation is used as a          |
|     fallback, which may lead to unwanted results.                           |
|                                                                             |
 -----------------------------------------------------------------------------



Automatic generation of k-mesh.
 Grid dimensions derived from KSPACING:
 generate k-points for:    6    6    6

 Generating k-lattice:

  Cartesian coordinates                     Fractional coordinates (reciprocal lattice)
     0.058205862 -0.033605170 -0.023762444     0.166666667 -0.000000000 -0.000000000
     0.000000000  0.067210341 -0.023762444     0.000000000  0.166666667 -0.000000000
     0.000000000  0.000000000  0.071287332     0.000000000  0.000000000  0.166666667

  Length of vectors
     0.071287332  0.071287332  0.071287332

  Shift w.r.t. Gamma in fractional coordinates (k-lattice)
     0.000000000  0.000000000  0.000000000

 TETIRR: Found     35 inequivalent tetrahedra from     1296
 
 Subroutine IBZKPT returns following result:
 ===========================================
 
 Found     16 irreducible k-points:
 
 Following reciprocal coordinates:
            Coordinates               Weight
  0.000000  0.000000  0.000000      1.000000
  0.166667  0.000000  0.000000      8.000000
  0.333333  0.000000  0.000000      8.000000
  0.500000  0.000000  0.000000      4.000000
  0.166667  0.166667  0.000000      6.000000
  0.333333  0.166667  0.000000     24.000000
  0.500000  0.166667  0.000000     24.000000
 -0.333333  0.166667  0.000000     24.000000
 -0.166667  0.166667  0.000000     12.000000
  0.333333  0.333333  0.000000      6.000000
  0.500000  0.333333  0.000000     24.000000
 -0.333333  0.333333  0.000000     12.000000
  0.500000  0.500000  0.000000      3.000000
  0.500000  0.333333  0.166667     24.000000
 -0.333333  0.333333  0.166667     24.000000
 -0.333333  0.500000  0.166667     12.000000
 
 Following cartesian coordinates:
            Coordinates               Weight
  0.000000  0.000000  0.000000      1.000000
  0.058206 -0.033605 -0.023762      8.000000
  0.116412 -0.067210 -0.047525      8.000000
  0.174618 -0.100816 -0.071287      4.000000
  0.058206  0.033605 -0.047525      6.000000
  0.116412 -0.000000 -0.071287     24.000000
  0.174618 -0.033605 -0.095050     24.000000
 -0.116412  0.134421  0.023762     24.000000
 -0.058206  0.100816  0.000000     12.000000
  0.116412  0.067210 -0.095050      6.000000
  0.174618  0.033605 -0.118812     24.000000
 -0.116412  0.201631  0.000000     12.000000
  0.174618  0.100816 -0.142575      3.000000
  0.174618  0.033605 -0.047525     24.000000
 -0.116412  0.201631  0.071287     24.000000
 -0.116412  0.268841  0.047525     12.000000
 


--------------------------------------------------------------------------------------------------------




 Dimension of arrays:
   k-points           NKPTS =     16   k-points in BZ     NKDIM =     16   number of bands    NBANDS=      5
   number of dos      NEDOS =    301   number of ions     NIONS =      1
   non local maximal  LDIM  =      4   non local SUM 2l+1 LMDIM =      8
   total plane-waves  NPLWV =  13824
   max r-space proj   IRMAX =      1   max aug-charges    IRDMAX=  32605
   dimension x,y,z NGX =    24 NGY =   24 NGZ =   24
   dimension x,y,z NGXF=    48 NGYF=   48 NGZF=   48
   support grid    NGXF=    48 NGYF=   48 NGZF=   48
   ions per type =               1
   NGX,Y,Z   is equivalent  to a cutoff of  13.93, 13.93, 13.93 a.u.
   NGXF,Y,Z  is equivalent  to a cutoff of  27.87, 27.87, 27.87 a.u.

 SYSTEM =  Al                                      
 POSCAR =  Al                                      

 Startparameter for this run:
   NWRITE =      2    write-flag & timer
   PREC   = normal    normal or accurate (medium, high low for compatibility)
   ISTART =      1    job   : 0-new  1-cont  2-samecut
   ICHARG =      0    charge: 1-file 2-atom 10-const
   ISPIN  =      1    spin polarized calculation?
   LNONCOLLINEAR =      F non collinear calculations
   LSORBIT =      F    spin-orbit coupling
   INIWAV =      1    electr: 0-lowe 1-rand  2-diag
   LASPH  =      F    aspherical Exc in radial PAW
 Electronic Relaxation 1
   ENCUT  =  900.0 eV  66.15 Ry    8.13 a.u.   7.00  7.00  7.00*2*pi/ulx,y,z
   ENINI  =  900.0     initial cutoff
   ENAUG  =  291.1 eV  augmentation charge cutoff
   NELM   =     60;   NELMIN=  2; NELMDL=  0     # of ELM steps 
   EDIFF  = 0.1E-03   stopping-criterion for ELM
   LREAL  =      F    real-space projection
   NLSPLINE    = F    spline interpolate recip. space projectors
   LCOMPAT=      F    compatible to vasp.4.4
   GGA_COMPAT  = T    GGA compatible to vasp.4.4-vasp.4.6
   LMAXPAW     = -100 max onsite density
   LMAXMIX     =    2 max onsite mixed and CHGCAR
   VOSKOWN=      0    Vosko Wilk Nusair interpolation
   ROPT   =    0.00000
 Ionic relaxation
   EDIFFG = 0.1E-02   stopping-criterion for IOM
   NSW    =      0    number of steps for IOM
   NBLOCK =      1;   KBLOCK =      1    inner block; outer block 
   IBRION =     -1    ionic relax: 0-MD 1-quasi-New 2-CG
   NFREE  =      0    steps in history (QN), initial steepest desc. (CG)
   ISIF   =      2    stress and relaxation
   IWAVPR =     10    prediction:  0-non 1-charg 2-wave 3-comb
   ISYM   =      2    0-nonsym 1-usesym 2-fastsym
   LCORR  =      T    Harris-Foulkes like correction to forces

   POTIM  = 0.5000    time-step for ionic-motion
   TEIN   =    0.0    initial temperature
   TEBEG  =    0.0;   TEEND  =   0.0 temperature during run
   SMASS  =  -3.00    Nose mass-parameter (am)
   estimated Nose-frequenzy (Omega)   =  0.10E-29 period in steps = 0.13E+47 mass=  -0.187E-27a.u.
   SCALEE = 1.0000    scale energy and forces
   NPACO  =    256;   APACO  = 10.0  distance and # of slots for P.C.
   PSTRESS=    0.0 pullay stress

  Mass of Ions in am
   POMASS =  26.98
  Ionic Valenz
   ZVAL   =   3.00
  Atomic Wigner-Seitz radii
   RWIGS  =  -1.00
  virtual crystal weights 
   VCA    =   1.00
   NELECT =       3.0000    total number of electrons
   NUPDOWN=      -1.0000    fix difference up-down

 DOS related values:
   EMIN   =  10.00;   EMAX   =-10.00  energy-range for DOS
   EFERMI =   0.00;   METHOD = LEGACY      
   ISMEAR =    -5;   SIGMA  =   0.20  broadening in eV -4-tet -1-fermi 0-gaus

 Electronic relaxation 2 (details)
   IALGO  =     38    algorithm
   LDIAG  =      T    sub-space diagonalisation (order eigenvalues)
   LSUBROT=      F    optimize rotation matrix (better conditioning)
   TURBO    =      0    0=normal 1=particle mesh
   IRESTART =      0    0=no restart 2=restart with 2 vectors
   NREBOOT  =      0    no. of reboots
   NMIN     =      0    reboot dimension
   EREF     =   0.00    reference energy to select bands
   IMIX   =      4    mixing-type and parameters
     AMIX     =   0.40;   BMIX     =  1.00
     AMIX_MAG =   1.60;   BMIX_MAG =  1.00
     AMIN     =   0.10
     WC   =   100.;   INIMIX=   1;  MIXPRE=   1;  MAXMIX= -45

 Intra band minimization:
   WEIMIN = 0.0000     energy-eigenvalue tresh-hold
   EBREAK =  0.50E-05  absolut break condition
   DEPER  =   0.30     relativ break condition  

   TIME   =   0.40     timestep for ELM

  volume/ion in A,a.u.               =      16.60       112.03
  Fermi-wavevector in a.u.,A,eV,Ry     =   0.925561  1.749056 11.655602  0.856663
  Thomas-Fermi vector in A             =   2.051428

 Write flags
   LWAVE        =      T    write WAVECAR
   LDOWNSAMPLE  =      F    k-point downsampling of WAVECAR
   LCHARG       =      F    write CHGCAR
   LVTOT        =      F    write LOCPOT, total local potential
   LVHAR        =      F    write LOCPOT, Hartree potential only
   LELF         =      F    write electronic localiz. function (ELF)
   LORBIT       =      0    0 simple, 1 ext, 2 COOP (PROOUT), +10 PAW based schemes


 Dipole corrections
   LMONO  =      F    monopole corrections only (constant potential shift)
   LDIPOL =      F    correct potential (dipole corrections)
   IDIPOL =      0    1-x, 2-y, 3-z, 4-all directions 
   EPSILON=  1.0000000 bulk dielectric constant

 Exchange correlation treatment:
   GGA     =    --    GGA type
   LEXCH   =     8    internal setting for exchange type
   LIBXC   =     F    Libxc                    
   VOSKOWN =     0    Vosko Wilk Nusair interpolation
   LHFCALC =     F    Hartree Fock is set to
   LHFONE  =     F    Hartree Fock one center treatment
   AEXX    =    0.0000 exact exchange contribution

 Linear response parameters
   LEPSILON=     F    determine dielectric tensor
   LRPA    =     F    only Hartree local field effects (RPA)
   LNABLA  =     F    use nabla operator in PAW spheres
   LVEL    =     F    velocity operator in full k-point grid
   CSHIFT  =0.1000    complex shift for real part using Kramers Kronig
   OMEGAMAX=  -1.0    maximum frequency
   DEG_THRESHOLD= 0.2000000E-02 threshold for treating states as degnerate
   RTIME   =   -0.100 relaxation time in fs
  (WPLASMAI=    0.000 imaginary part of plasma frequency in eV, 0.658/RTIME)
   DFIELD  = 0.0000000 0.0000000 0.0000000 field for delta impulse in time

  Optional k-point grid parameters
   LKPOINTS_OPT  =     F    use optional k-point grid
   KPOINTS_OPT_MODE=     1    mode for optional k-point grid

 Orbital magnetization related:
   ORBITALMAG=     F  switch on orbital magnetization
   LCHIMAG   =     F  perturbation theory with respect to B field
   DQ        =  0.001000  dq finite difference perturbation B field
   LLRAUG    =     F  two centre corrections for induced B field
   LBONE     =     F  B-component reconstruction in AE one-centre
   LVGVCALC  =     T  calculate vGv susceptibility
   LVGVAPPL  =     F  apply vGv susceptibility instead of pGv for G=0

 Random number generation:
   RANDOM_GENERATOR = DEFAULT
   PCG_SEED         = not used


--------------------------------------------------------------------------------------------------------


 Static calculation
 charge density and potential will be updated during run
 non-spin polarized calculation
 Variant of blocked Davidson
 Davidson routine will perform the subspace rotation
 perform sub-space diagonalisation
    after iterative eigenvector-optimisation
 modified Broyden-mixing scheme, WC =      100.0
 initial mixing is a Kerker type mixing with AMIX =  0.4000 and BMIX =      1.0000
 Hartree-type preconditioning will be used
 using additional bands            3
 reciprocal scheme for non local part
 use partial core corrections
 calculate Harris-corrections to forces   (improved forces if not selfconsistent)
 use gradient corrections 
 use of overlap-Matrix (Vanderbilt PP)
 Fermi weights with tetrahedron method with Bloechl corrections


--------------------------------------------------------------------------------------------------------


  energy-cutoff  :      900.00
  volume of cell :       16.60
      direct lattice vectors                 reciprocal lattice vectors
     2.863400000  0.000000000  0.000000000     0.349235175 -0.201631022 -0.142574663
     1.431700000  2.479777141  0.000000000     0.000000000  0.403262045 -0.142574663
     1.431700000  0.826592380  2.337956310     0.000000000  0.000000000  0.427723989

  length of vectors
     2.863400000  2.863400000  2.863400000     0.427723989  0.427723989  0.427723989



 old parameters found on file WAVECAR:
  energy-cutoff  :      850.00
  volume of cell :       16.60
      direct lattice vectors                 reciprocal lattice vectors
     2.863400000  0.000000000  0.000000000     0.349235175 -0.201631022 -0.142574663
     1.431700000  2.479777141  0.000000000     0.000000000  0.403262045 -0.142574663
     1.431700000  0.826592380  2.337956310     0.000000000  0.000000000  0.427723989

  length of vectors


 k-points in units of 2pi/SCALE and weight: read from INCAR                         
   0.00000000  0.00000000  0.00000000       0.005
   0.05820586 -0.03360517 -0.02376244       0.037
   0.11641172 -0.06721034 -0.04752489       0.037
   0.17461759 -0.10081551 -0.07128733       0.019
   0.05820586  0.03360517 -0.04752489       0.028
   0.11641172 -0.00000000 -0.07128733       0.111
   0.17461759 -0.03360517 -0.09504978       0.111
  -0.11641172  0.13442068  0.02376244       0.111
  -0.05820586  0.10081551  0.00000000       0.056
   0.11641172  0.06721034 -0.09504978       0.028
   0.17461759  0.03360517 -0.11881222       0.111
  -0.11641172  0.20163102  0.00000000       0.056
   0.17461759  0.10081551 -0.14257466       0.014
   0.17461759  0.03360517 -0.04752489       0.111
  -0.11641172  0.20163102  0.07128733       0.111
  -0.11641172  0.26884136  0.04752489       0.056

 k-points in reciprocal lattice and weights: read from INCAR                         
   0.00000000  0.00000000  0.00000000       0.005
   0.16666667  0.00000000  0.00000000       0.037
   0.33333333  0.00000000  0.00000000       0.037
   0.50000000  0.00000000  0.00000000       0.019
   0.16666667  0.16666667  0.00000000       0.028
   0.33333333  0.16666667  0.00000000       0.111
   0.50000000  0.16666667  0.00000000       0.111
  -0.33333333  0.16666667  0.00000000       0.111
  -0.16666667  0.16666667  0.00000000       0.056
   0.33333333  0.33333333  0.00000000       0.028
   0.50000000  0.33333333  0.00000000       0.111
  -0.33333333  0.33333333  0.00000000       0.056
   0.50000000  0.50000000  0.00000000       0.014
   0.50000000  0.33333333  0.16666667       0.111
  -0.33333333  0.33333333  0.16666667       0.111
  -0.33333333  0.50000000  0.16666667       0.056

 position of ions in fractional coordinates (direct lattice) 
   0.00000000  0.00000000  0.00000000

 position of ions in cartesian coordinates  (Angst):
   0.00000000  0.00000000  0.00000000



--------------------------------------------------------------------------------------------------------


 k-point   1 :   0.0000 0.0000 0.0000  plane waves:     965
 k-point   2 :   0.1667 0.0000 0.0000  plane waves:     995
 k-point   3 :   0.3333 0.0000 0.0000  plane waves:    1008
 k-point   4 :   0.5000 0.0000 0.0000  plane waves:    1008
 k-point   5 :   0.1667 0.1667 0.0000  plane waves:     998
 k-point   6 :   0.3333 0.1667 0.0000  plane waves:    1011
 k-point   7 :   0.5000 0.1667 0.0000  plane waves:    1017
 k-point   8 :  -0.3333 0.1667 0.0000  plane waves:    1019
 k-point   9 :  -0.1667 0.1667 0.0000  plane waves:    1013
 k-point  10 :   0.3333 0.3333 0.0000  plane waves:    1030
 k-point  11 :   0.5000 0.3333 0.0000  plane waves:    1026
 k-point  12 :  -0.3333 0.3333 0.0000  plane waves:    1015
 k-point  13 :   0.5000 0.5000 0.0000  plane waves:    1034
 k-point  14 :   0.5000 0.3333 0.1667  plane waves:    1032
 k-point  15 :  -0.3333 0.3333 0.1667  plane waves:    1020
 k-point  16 :  -0.3333 0.5000 0.1667  plane waves:    1016

 maximum and minimum number of plane-waves per node :       523      478

 maximum number of plane-waves:      1034
 maximum index in each direction: 
   IXMAX=    7   IYMAX=    6   IZMAX=    7
   IXMIN=   -7   IYMIN=   -7   IZMIN=   -7


 parallel 3D FFT for wavefunctions:
    minimum data exchange during FFTs selected (reduces bandwidth)
 parallel 3D FFT for charge:
    minimum data exchange during FFTs selected (reduces bandwidth)


 total amount of memory used by VASP MPI-rank0    36354. kBytes
=======================================================================

   base      :      30000. kBytes
   nonl-proj :        535. kBytes
   fftplans  :       2138. kBytes
   grid      :       3009. kBytes
   one-center:          3. kBytes
   wavefun   :        669. kBytes

     INWAV:  cpu time      0.0044: real time      0.0044
 Broyden mixing: mesh for mixing (old mesh)
   NGX = 13   NGY = 13   NGZ = 13
  (NGX  = 48   NGY  = 48   NGZ  = 48)
  gives a total of   2197 points

 charge density for first step will be calculated from the start-wavefunctions


--------------------------------------------------------------------------------------------------------


 Maximum index for augmentation-charges        15751 (set IRDMAX)


--------------------------------------------------------------------------------------------------------


 initial charge from wavefunction
 First call to EWALD:  gamma=   0.695
 Maximum number of real-space cells 3x 3x 3
 Maximum number of reciprocal cells 3x 3x 3

    FEWALD:  cpu time      0.0005: real time      0.0005


--------------------------------------- Ionic step        1  -------------------------------------------




--------------------------------------- Iteration      1(   1)  ---------------------------------------


    POTLOK:  cpu time      0.0125: real time      0.0125
    SETDIJ:  cpu time      0.0024: real time      0.0024
     EDDAV:  cpu time      0.0601: real time      0.0601
 BZINTS: Fermi energy:    8.064716;    3.000000 electrons
         Band energy: 0.105520E+02;  BLOECHL correction:   -0.366916
       DOS:  cpu time      0.0004: real time      0.0004
    CHARGE:  cpu time      0.0063: real time      0.0063
    MIXING:  cpu time      0.0003: real time      0.0003
    --------------------------------------------
      LOOP:  cpu time      0.0820: real time      0.0820

 eigenvalue-minimisations  :   153
 total energy-change (2. order) :-0.3779676E+01  (-0.2261559E-04)
 number of electron       3.0000000 magnetization 
 augmentation part       -0.0386281 magnetization 

 Broyden mixing:
  rms(total) = 0.58629E-04    rms(broyden)= 0.58042E-04
  rms(prec ) = 0.69956E-04
  weight for this iteration     100.00

 Free energy of the ion-electron system (eV)
  ---------------------------------------------------
  alpha Z        PSCENC =        -0.20232724
  Ewald energy   TEWEN  =       -73.36650718
  -Hartree energ DENC   =        -0.10424093
  -exchange      EXHF   =         0.00000000
  -V(xc)+E(xc)   XCENC  =       -26.14123168
  PAW double counting   =       138.73488840     -106.79088883
  entropy T*S    EENTRO =         0.00000000
  eigenvalues    EBANDS =        10.55198341
  atomic energy  EATOM  =        53.53864823
  Solvation  Ediel_sol  =         0.00000000
  ---------------------------------------------------
  free energy    TOTEN  =        -3.77967582 eV

  energy without entropy =       -3.77967582  energy(sigma->0) =       -3.77967582


--------------------------------------------------------------------------------------------------------




--------------------------------------- Iteration      1(   2)  ---------------------------------------


    POTLOK:  cpu time      0.0128: real time      0.0128
    SETDIJ:  cpu time      0.0024: real time      0.0024
     EDDAV:  cpu time      0.0429: real time      0.0429
 BZINTS: Fermi energy:    8.064715;    3.000000 electrons
         Band energy: 0.105520E+02;  BLOECHL correction:   -0.366916
       DOS:  cpu time      0.0004: real time      0.0004
    --------------------------------------------
      LOOP:  cpu time      0.0585: real time      0.0585

 eigenvalue-minimisations  :    83
 total energy-change (2. order) :-0.1706695E-07  (-0.1846218E-09)
 number of electron       3.0000000 magnetization 
 augmentation part       -0.0386281 magnetization 

 Free energy of the ion-electron system (eV)
  ---------------------------------------------------
  alpha Z        PSCENC =        -0.20232724
  Ewald energy   TEWEN  =       -73.36650718
  -Hartree energ DENC   =        -0.10424104
  -exchange      EXHF   =         0.00000000
  -V(xc)+E(xc)   XCENC  =       -26.14122922
  PAW double counting   =       138.72617284     -106.78217276
  entropy T*S    EENTRO =         0.00000000
  eigenvalues    EBANDS =        10.55198054
  atomic energy  EATOM  =        53.53864823
  Solvation  Ediel_sol  =         0.00000000
  ---------------------------------------------------
  free energy    TOTEN  =        -3.77967584 eV

  energy without entropy =       -3.77967584  energy(sigma->0) =       -3.77967584


--------------------------------------------------------------------------------------------------------




 average (electrostatic) potential at core
  the test charge radii are     1.0406
  (the norm of the test charge is              1.0000)
       1 -72.7085



 E-fermi :   8.0647     XC(G=0): -10.1751     alpha+bet :-14.7860

 Fermi energy:         8.0647146327

 k-point     1 :       0.0000    0.0000    0.0000
  band No.  band energies     occupation 
      1      -3.1563      2.00000
      2      20.5215      0.00000
      3      20.5215      0.00000
      4      20.5215      0.00000
      5      21.9662      0.00000

 k-point     2 :       0.1667    0.0000    0.0000
  band No.  band energies     occupation 
      1      -2.4059      2.00000
      2      14.5542      0.00000
      3      19.2414      0.00000
      4      19.2414      0.00000
      5      22.4625      0.00000

 k-point     3 :       0.3333    0.0000    0.0000
  band No.  band energies     occupation 
      1      -0.1781      2.00000
      2       8.4294      0.71882
      3      18.6599      0.00000
      4      18.6599      0.00000
      5      21.2459      0.00000

 k-point     4 :       0.5000    0.0000    0.0000
  band No.  band energies     occupation 
      1       3.3675      2.00000
      2       3.5641      2.02556
      3      19.2799      0.00000
      4      19.2799      0.00000
      5      19.3690      0.00000

 k-point     5 :       0.1667    0.1667    0.0000
  band No.  band energies     occupation 
      1      -2.1567      2.00000
      2      16.9110      0.00000
      3      16.9110      0.00000
      4      17.0830      0.00000
      5      20.1480      0.00000

 k-point     6 :       0.3333    0.1667    0.0000
  band No.  band energies     occupation 
      1      -0.4241      2.00000
      2      10.9262     -0.10501
      3      15.8551      0.00000
      4      16.5882      0.00000
      5      17.4994      0.00000

 k-point     7 :       0.5000    0.1667    0.0000
  band No.  band energies     occupation 
      1       2.7363      2.00000
      2       5.6101      2.04038
      3      14.1296      0.00000
      4      16.0813      0.00000
      5      17.8604      0.00000

 k-point     8 :      -0.3333    0.1667    0.0000
  band No.  band energies     occupation 
      1       1.5308      2.00000
      2       7.2354      1.48409
      3      13.0209      0.00000
      4      17.5911      0.00000
      5      19.5164      0.00000

 k-point     9 :      -0.1667    0.1667    0.0000
  band No.  band energies     occupation 
      1      -1.1640      2.00000
      2      12.4084     -0.10471
      3      13.8070      0.00000
      4      20.3423      0.00000
      5      22.3682      0.00000

 k-point    10 :       0.3333    0.3333    0.0000
  band No.  band energies     occupation 
      1       0.7987      2.00000
      2      12.2990     -0.07920
      3      14.1797      0.00000
      4      14.3545      0.00000
      5      14.3545      0.00000

 k-point    11 :       0.5000    0.3333    0.0000
  band No.  band energies     occupation 
      1       3.4371      2.00000
      2       8.9686      0.45295
      3       9.4288      0.00000
      4      14.1447      0.00000
      5      15.6514      0.00000

 k-point    12 :      -0.3333    0.3333    0.0000
  band No.  band energies     occupation 
      1       4.6430      2.00000
      2       6.8671      1.99604
      3       8.3196      0.00000
      4      15.2220      0.00000
      5      16.9844      0.00000

 k-point    13 :       0.5000    0.5000    0.0000
  band No.  band energies     occupation 
      1       5.0269      2.00000
      2       6.3363      2.02875
      3      13.1928      0.00000
      4      13.5016      0.00000
      5      13.5016      0.00000

 k-point    14 :       0.5000    0.3333    0.1667
  band No.  band energies     occupation 
      1       1.7710      2.00000
      2       9.6371      0.32796
      3      11.0860      0.00000
      4      13.2841      0.00000
      5      20.7115      0.00000

 k-point    15 :      -0.3333    0.3333    0.1667
  band No.  band energies     occupation 
      1       5.2157      2.00000
      2       5.4708      2.16330
      3      10.9329      0.00000
      4      11.4863      0.00000
      5      21.9032      0.00000

 k-point    16 :      -0.3333    0.5000    0.1667
  band No.  band energies     occupation 
      1       5.9462      2.00000
      2       7.2855      1.75934
      3       8.7130      0.00000
      4      10.2664      0.00000
      5      19.8251      0.00000


--------------------------------------------------------------------------------------------------------


 soft charge-density along one line, spin component           1
         0         1         2         3         4         5         6         7         8         9
 total charge-density along one line

 pseudopotential strength for first ion, spin component:           1
  8.446  14.394  -0.000  -0.000  -0.000  -0.000  -0.000  -0.000
 14.394  24.533  -0.000  -0.000  -0.000  -0.000  -0.000  -0.000
 -0.000  -0.000   1.987   0.000   0.000   5.730   0.000   0.000
 -0.000  -0.000   0.000   1.987   0.000   0.000   5.730   0.000
 -0.000  -0.000   0.000   0.000   1.987   0.000   0.000   5.730
 -0.000  -0.000   5.730   0.000   0.000  16.435   0.000   0.000
 -0.000  -0.000   0.000   5.730   0.000   0.000  16.435   0.000
 -0.000  -0.000   0.000   0.000   5.730   0.000   0.000  16.435
 total augmentation occupancy for first ion, spin component:           1
  3.325  -0.809   0.000   0.000   0.000   0.000   0.000   0.000
 -0.809   0.261   0.000   0.000   0.000   0.000   0.000   0.000
  0.000   0.000   1.091   0.000   0.000  -0.069  -0.000  -0.000
  0.000   0.000   0.000   1.091   0.000  -0.000  -0.069  -0.000
  0.000   0.000   0.000   0.000   1.091  -0.000  -0.000  -0.069
  0.000   0.000  -0.069  -0.000  -0.000   0.005   0.000   0.000
  0.000   0.000  -0.000  -0.069  -0.000   0.000   0.005   0.000
  0.000   0.000  -0.000  -0.000  -0.069   0.000   0.000   0.005


------------------------ aborting loop because EDIFF is reached ----------------------------------------


    CHARGE:  cpu time      0.0058: real time      0.0058
    FORLOC:  cpu time      0.0005: real time      0.0005
    FORNL :  cpu time      0.0112: real time      0.0112
    STRESS:  cpu time      0.0449: real time      0.0449
    FORCOR:  cpu time      0.0142: real time      0.0142
    FORHAR:  cpu time      0.0028: real time      0.0028
    MIXING:  cpu time      0.0004: real time      0.0004
    OFIELD:  cpu time      0.0000: real time      0.0000

  FORCE on cell =-STRESS in cart. coord.  units (eV):
  Direction    XX          YY          ZZ          XY          YZ          ZX
  --------------------------------------------------------------------------------------
  Alpha Z    -0.20233    -0.20233    -0.20233
  Ewald     -24.45550   -24.45550   -24.45550    -0.00000     0.00000    -0.00000
  Hartree     0.03475     0.03475     0.03475     0.00000     0.00000     0.00000
  E(xc)      -8.54341    -8.54341    -8.54340    -0.00000    -0.00000    -0.00000
  Local       0.33950     0.33950     0.33950    -0.00000    -0.00000    -0.00000
  n-local    18.16719    19.09133    19.17366     0.69533    -0.24291     0.25566
  augment    -1.03061    -1.03061    -1.03061     0.00000     0.00000     0.00000
  Kinetic    24.77527    12.19400     7.83223    -5.17396     0.67464   -10.78473
  Fock        0.00000     0.00000     0.00000     0.00000     0.00000     0.00000
  -------------------------------------------------------------------------------------
  Total      -0.11304    -0.11304    -0.11304    -0.00000    -0.00000    -0.00000
  in kB     -10.90958   -10.90958   -10.90958    -0.00000    -0.00000    -0.00000
  external pressure =      -10.91 kB  Pullay stress =        0.00 kB


 VOLUME and BASIS-vectors are now :
 -----------------------------------------------------------------------------
  energy-cutoff  :      900.00
  volume of cell :       16.60
      direct lattice vectors                 reciprocal lattice vectors
     2.863400000  0.000000000  0.000000000     0.349235175 -0.201631022 -0.142574663
     1.431700000  2.479777141  0.000000000     0.000000000  0.403262045 -0.142574663
     1.431700000  0.826592380  2.337956310     0.000000000  0.000000000  0.427723989

  length of vectors
     2.863400000  2.863400000  2.863400000     0.427723989  0.427723989  0.427723989


 FORCES acting on ions
    electron-ion (+dipol)            ewald-force                    non-local-force                 convergence-correction
 -----------------------------------------------------------------------------------------------
   -.240E-15 -.672E-15 0.822E-15   -.160E-15 0.348E-16 -.345E-16   -.258E-25 -.223E-25 -.156E-25   0.674E-17 -.414E-17 -.161E-17
 -----------------------------------------------------------------------------------------------
   -.240E-15 -.672E-15 0.822E-15   -.160E-15 0.348E-16 -.345E-16   -.258E-25 -.223E-25 -.156E-25   0.674E-17 -.414E-17 -.161E-17


 POSITION                                       TOTAL-FORCE (eV/Angst)
 -----------------------------------------------------------------------------------
      0.00000      0.00000      0.00000         0.000000      0.000000      0.000000
 -----------------------------------------------------------------------------------
    total drift:                               -0.000000     -0.000000      0.000000


--------------------------------------------------------------------------------------------------------



  FREE ENERGIE OF THE ION-ELECTRON SYSTEM (eV)
  ---------------------------------------------------
  free  energy   TOTEN  =        -3.77967584 eV

  energy  without entropy=       -3.77967584  energy(sigma->0) =       -3.77967584



--------------------------------------------------------------------------------------------------------


    POTLOK:  cpu time      0.0157: real time      0.0157


--------------------------------------------------------------------------------------------------------


 writing wavefunctions
     LOOP+:  cpu time      0.2420: real time      0.2421
 -----------------------------------------------------------------------------
|                                                                             |
|           W    W    AA    RRRRR   N    N  II  N    N   GGGG   !!!           |
|           W    W   A  A   R    R  NN   N  II  NN   N  G    G  !!!           |
|           W    W  A    A  R    R  N N  N  II  N N  N  G       !!!           |
|           W WW W  AAAAAA  RRRRR   N  N N  II  N  N N  G  GGG   !            |
|           WW  WW  A    A  R   R   N   NN  II  N   NN  G    G                |
|           W    W  A    A  R    R  N    N  II  N    N   GGGG   !!!           |
|                                                                             |
|     Tetrahedron method does not include variations of the Fermi             |
|     occupations, so forces and stress will be inaccurate. We suggest        |
|     using a different smearing scheme ISMEAR = 1 or 2 for metals in         |
|     relaxations.                                                            |
|                                                                             |
 -----------------------------------------------------------------------------

    4ORBIT:  cpu time      0.0000: real time      0.0000
 BZINTS: Fermi energy:    8.064715;    3.000000 electrons
         Band energy: 0.105520E+02;  BLOECHL correction:   -0.366916

 total amount of memory used by VASP MPI-rank0    36354. kBytes
=======================================================================

   base      :      30000. kBytes
   nonl-proj :        535. kBytes
   fftplans  :       2138. kBytes
   grid      :       3009. kBytes
   one-center:          3. kBytes
   wavefun   :        669. kBytes

  
  
 General timing and accounting informations for this job:
 ========================================================
  
                  Total CPU time used (sec):        1.613
                            User time (sec):        0.804
                          System time (sec):        0.808
                         Elapsed time (sec):        1.808
  
                   Maximum memory used (kb):       55368.
                   Average memory used (kb):          N/A
  
                          Minor page faults:        25135
                          Major page faults:            1
                 Voluntary context switches:         1154
