 running    2 mpi-ranks, with    1 threads/rank, on    1 nodes
 distrk:  each k-point on    2 cores,    1 groups
 distr:  one band on    2 cores,    1 groups
 vasp.6.4.2 20Jul23 (build Oct 18 2023 12:49:41) complex                         
 POSCAR found type information on POSCAR Al
 POSCAR found :  1 types and       1 ions
 Reading from existing POTCAR
 scaLAPACK will be used
 Reading from existing POTCAR
 LDA part: xc-table for Pade appr. of Perdew
 found WAVECAR, reading the header
 WAVECAR: different cutoff or change in lattice found
 POSCAR, INCAR and KPOINTS ok, starting setup
 FFT: planning ... GRIDC
 FFT: planning ... GRID_SOFT
 FFT: planning ... GRID
 reading WAVECAR
 the WAVECAR file was read successfully
 initial charge from wavefunction
 entering main loop
       N       E                     dE             d eps       ncg     rms          rms(c)
DAV:   1    -0.428857477983E+00   -0.42886E+00   -0.13516E+01  5248   0.164E+01    0.188E+00
DAV:   2    -0.195991872071E+00    0.23287E+00   -0.28086E-01  4581   0.344E+00    0.121E+00
DAV:   3    -0.170351697424E-01    0.17896E+00   -0.26752E-01  4550   0.230E+00    0.294E-01
DAV:   4    -0.705667632229E-02    0.99785E-02   -0.17421E-02  5729   0.578E-01    0.378E-01
