<?xml version="1.0" encoding="ISO-8859-1"?>
<modeling>
 <generator>
  <i name="program" type="string">vasp </i>
  <i name="version" type="string">6.4.2  </i>
  <i name="subversion" type="string">20Jul23 (build Oct 18 2023 12:49:41) complex                          parallel </i>
  <i name="platform" type="string">LinuxGNU </i>
  <i name="date" type="string">2025 04 11 </i>
  <i name="time" type="string">07:44:06 </i>
 </generator>
 <incar>
  <i type="string" name="SYSTEM">Al atom</i>
  <i type="int" name="NSIM">     1</i>
  <i name="ENCUT">    400.00000000</i>
  <i type="int" name="ISMEAR">    -5</i>
  <i type="logical" name="LCHARG"> F  </i>
 </incar>
 <primitive_cell>
  <structure name="primitive_cell" >
   <crystal>
    <varray name="basis" >
     <v>       2.86340000       0.00000000       0.00000000 </v>
     <v>       1.43170000       2.47977714       0.00000000 </v>
     <v>       1.43170000       0.82659238       2.33795631 </v>
    </varray>
    <i name="volume">     16.60087823 </i>
    <varray name="rec_basis" >
     <v>       0.34923517      -0.20163102      -0.14257466 </v>
     <v>       0.00000000       0.40326204      -0.14257466 </v>
     <v>       0.00000000       0.00000000       0.42772399 </v>
    </varray>
   </crystal>
   <varray name="positions" >
    <v>       0.00000000       0.00000000       0.00000000 </v>
   </varray>
  </structure>
  <varray name="primitive_index" >
   <v type="int" >        1 </v>
  </varray>
 </primitive_cell>
 <kpoints>
  <generation param="Gamma">
   <v type="int" name="divisions">      28       28       28 </v>
   <v name="usershift">      0.00000000       0.00000000       0.00000000 </v>
   <v name="genvec1">      0.03571429      -0.00000000      -0.00000000 </v>
   <v name="genvec2">      0.00000000       0.03571429      -0.00000000 </v>
   <v name="genvec3">      0.00000000       0.00000000       0.03571429 </v>
   <v name="shift">      0.00000000       0.00000000       0.00000000 </v>
  </generation>
  <varray name="kpointlist" >
   <v>       0.00000000       0.00000000       0.00000000 </v>
   <v>       0.03571429       0.00000000       0.00000000 </v>
   <v>       0.07142857       0.00000000       0.00000000 </v>
   <v>       0.10714286       0.00000000       0.00000000 </v>
   <v>       0.14285714       0.00000000       0.00000000 </v>
   <v>       0.17857143       0.00000000       0.00000000 </v>
   <v>       0.21428571       0.00000000       0.00000000 </v>
   <v>       0.25000000       0.00000000       0.00000000 </v>
   <v>       0.28571429       0.00000000       0.00000000 </v>
   <v>       0.32142857       0.00000000       0.00000000 </v>
   <v>       0.35714286       0.00000000       0.00000000 </v>
   <v>       0.39285714       0.00000000       0.00000000 </v>
   <v>       0.42857143       0.00000000       0.00000000 </v>
   <v>       0.46428571       0.00000000       0.00000000 </v>
   <v>       0.50000000       0.00000000       0.00000000 </v>
   <v>       0.03571429       0.03571429       0.00000000 </v>
   <v>       0.07142857       0.03571429       0.00000000 </v>
   <v>       0.10714286       0.03571429       0.00000000 </v>
   <v>       0.14285714       0.03571429       0.00000000 </v>
   <v>       0.17857143       0.03571429       0.00000000 </v>
   <v>       0.21428571       0.03571429       0.00000000 </v>
   <v>       0.25000000       0.03571429       0.00000000 </v>
   <v>       0.28571429       0.03571429       0.00000000 </v>
   <v>       0.32142857       0.03571429       0.00000000 </v>
   <v>       0.35714286       0.03571429       0.00000000 </v>
   <v>       0.39285714       0.03571429       0.00000000 </v>
   <v>       0.42857143       0.03571429       0.00000000 </v>
   <v>       0.46428571       0.03571429       0.00000000 </v>
   <v>       0.50000000       0.03571429       0.00000000 </v>
   <v>      -0.46428571       0.03571429       0.00000000 </v>
   <v>      -0.42857143       0.03571429       0.00000000 </v>
   <v>      -0.39285714       0.03571429       0.00000000 </v>
   <v>      -0.35714286       0.03571429       0.00000000 </v>
   <v>      -0.32142857       0.03571429       0.00000000 </v>
   <v>      -0.28571429       0.03571429       0.00000000 </v>
   <v>      -0.25000000       0.03571429       0.00000000 </v>
   <v>      -0.21428571       0.03571429       0.00000000 </v>
   <v>      -0.17857143       0.03571429       0.00000000 </v>
   <v>      -0.14285714       0.03571429       0.00000000 </v>
   <v>      -0.10714286       0.03571429       0.00000000 </v>
   <v>      -0.07142857       0.03571429       0.00000000 </v>
   <v>      -0.03571429       0.03571429       0.00000000 </v>
   <v>       0.07142857       0.07142857       0.00000000 </v>
   <v>       0.10714286       0.07142857       0.00000000 </v>
   <v>       0.14285714       0.07142857       0.00000000 </v>
   <v>       0.17857143       0.07142857       0.00000000 </v>
   <v>       0.21428571       0.07142857       0.00000000 </v>
   <v>       0.25000000       0.07142857       0.00000000 </v>
   <v>       0.28571429       0.07142857       0.00000000 </v>
   <v>       0.32142857       0.07142857       0.00000000 </v>
   <v>       0.35714286       0.07142857       0.00000000 </v>
   <v>       0.39285714       0.07142857       0.00000000 </v>
   <v>       0.42857143       0.07142857       0.00000000 </v>
   <v>       0.46428571       0.07142857       0.00000000 </v>
   <v>       0.50000000       0.07142857       0.00000000 </v>
   <v>      -0.46428571       0.07142857       0.00000000 </v>
   <v>      -0.42857143       0.07142857       0.00000000 </v>
   <v>      -0.39285714       0.07142857       0.00000000 </v>
   <v>      -0.35714286       0.07142857       0.00000000 </v>
   <v>      -0.32142857       0.07142857       0.00000000 </v>
   <v>      -0.28571429       0.07142857       0.00000000 </v>
   <v>      -0.25000000       0.07142857       0.00000000 </v>
   <v>      -0.21428571       0.07142857       0.00000000 </v>
   <v>      -0.17857143       0.07142857       0.00000000 </v>
   <v>      -0.14285714       0.07142857       0.00000000 </v>
   <v>      -0.10714286       0.07142857       0.00000000 </v>
   <v>      -0.07142857       0.07142857       0.00000000 </v>
   <v>       0.10714286       0.10714286       0.00000000 </v>
   <v>       0.14285714       0.10714286       0.00000000 </v>
   <v>       0.17857143       0.10714286       0.00000000 </v>
   <v>       0.21428571       0.10714286       0.00000000 </v>
   <v>       0.25000000       0.10714286       0.00000000 </v>
   <v>       0.28571429       0.10714286       0.00000000 </v>
   <v>       0.32142857       0.10714286       0.00000000 </v>
   <v>       0.35714286       0.10714286       0.00000000 </v>
   <v>       0.39285714       0.10714286       0.00000000 </v>
   <v>       0.42857143       0.10714286       0.00000000 </v>
   <v>       0.46428571       0.10714286       0.00000000 </v>
   <v>       0.50000000       0.10714286       0.00000000 </v>
   <v>      -0.46428571       0.10714286       0.00000000 </v>
   <v>      -0.42857143       0.10714286       0.00000000 </v>
   <v>      -0.39285714       0.10714286       0.00000000 </v>
   <v>      -0.35714286       0.10714286       0.00000000 </v>
   <v>      -0.32142857       0.10714286       0.00000000 </v>
   <v>      -0.28571429       0.10714286       0.00000000 </v>
   <v>      -0.25000000       0.10714286       0.00000000 </v>
   <v>      -0.21428571       0.10714286       0.00000000 </v>
   <v>      -0.17857143       0.10714286       0.00000000 </v>
   <v>      -0.14285714       0.10714286       0.00000000 </v>
   <v>      -0.10714286       0.10714286       0.00000000 </v>
   <v>       0.14285714       0.14285714       0.00000000 </v>
   <v>       0.17857143       0.14285714       0.00000000 </v>
   <v>       0.21428571       0.14285714       0.00000000 </v>
   <v>       0.25000000       0.14285714       0.00000000 </v>
   <v>       0.28571429       0.14285714       0.00000000 </v>
   <v>       0.32142857       0.14285714       0.00000000 </v>
   <v>       0.35714286       0.14285714       0.00000000 </v>
   <v>       0.39285714       0.14285714       0.00000000 </v>
   <v>       0.42857143       0.14285714       0.00000000 </v>
   <v>       0.46428571       0.14285714       0.00000000 </v>
   <v>       0.50000000       0.14285714       0.00000000 </v>
   <v>      -0.46428571       0.14285714       0.00000000 </v>
   <v>      -0.42857143       0.14285714       0.00000000 </v>
   <v>      -0.39285714       0.14285714       0.00000000 </v>
   <v>      -0.35714286       0.14285714       0.00000000 </v>
   <v>      -0.32142857       0.14285714       0.00000000 </v>
   <v>      -0.28571429       0.14285714       0.00000000 </v>
   <v>      -0.25000000       0.14285714       0.00000000 </v>
   <v>      -0.21428571       0.14285714       0.00000000 </v>
   <v>      -0.17857143       0.14285714       0.00000000 </v>
   <v>      -0.14285714       0.14285714       0.00000000 </v>
   <v>       0.17857143       0.17857143       0.00000000 </v>
   <v>       0.21428571       0.17857143       0.00000000 </v>
   <v>       0.25000000       0.17857143       0.00000000 </v>
   <v>       0.28571429       0.17857143       0.00000000 </v>
   <v>       0.32142857       0.17857143       0.00000000 </v>
   <v>       0.35714286       0.17857143       0.00000000 </v>
   <v>       0.39285714       0.17857143       0.00000000 </v>
   <v>       0.42857143       0.17857143       0.00000000 </v>
   <v>       0.46428571       0.17857143       0.00000000 </v>
   <v>       0.50000000       0.17857143       0.00000000 </v>
   <v>      -0.46428571       0.17857143       0.00000000 </v>
   <v>      -0.42857143       0.17857143       0.00000000 </v>
   <v>      -0.39285714       0.17857143       0.00000000 </v>
   <v>      -0.35714286       0.17857143       0.00000000 </v>
   <v>      -0.32142857       0.17857143       0.00000000 </v>
   <v>      -0.28571429       0.17857143       0.00000000 </v>
   <v>      -0.25000000       0.17857143       0.00000000 </v>
   <v>      -0.21428571       0.17857143       0.00000000 </v>
   <v>      -0.17857143       0.17857143       0.00000000 </v>
   <v>       0.21428571       0.21428571       0.00000000 </v>
   <v>       0.25000000       0.21428571       0.00000000 </v>
   <v>       0.28571429       0.21428571       0.00000000 </v>
   <v>       0.32142857       0.21428571       0.00000000 </v>
   <v>       0.35714286       0.21428571       0.00000000 </v>
   <v>       0.39285714       0.21428571       0.00000000 </v>
   <v>       0.42857143       0.21428571       0.00000000 </v>
   <v>       0.46428571       0.21428571       0.00000000 </v>
   <v>       0.50000000       0.21428571       0.00000000 </v>
   <v>      -0.46428571       0.21428571       0.00000000 </v>
   <v>      -0.42857143       0.21428571       0.00000000 </v>
   <v>      -0.39285714       0.21428571       0.00000000 </v>
   <v>      -0.35714286       0.21428571       0.00000000 </v>
   <v>      -0.32142857       0.21428571       0.00000000 </v>
   <v>      -0.28571429       0.21428571       0.00000000 </v>
   <v>      -0.25000000       0.21428571       0.00000000 </v>
   <v>      -0.21428571       0.21428571       0.00000000 </v>
   <v>       0.25000000       0.25000000       0.00000000 </v>
   <v>       0.28571429       0.25000000       0.00000000 </v>
   <v>       0.32142857       0.25000000       0.00000000 </v>
   <v>       0.35714286       0.25000000       0.00000000 </v>
   <v>       0.39285714       0.25000000       0.00000000 </v>
   <v>       0.42857143       0.25000000       0.00000000 </v>
   <v>       0.46428571       0.25000000       0.00000000 </v>
   <v>       0.50000000       0.25000000       0.00000000 </v>
   <v>      -0.46428571       0.25000000       0.00000000 </v>
   <v>      -0.42857143       0.25000000       0.00000000 </v>
   <v>      -0.39285714       0.25000000       0.00000000 </v>
   <v>      -0.35714286       0.25000000       0.00000000 </v>
   <v>      -0.32142857       0.25000000       0.00000000 </v>
   <v>      -0.28571429       0.25000000       0.00000000 </v>
   <v>      -0.25000000       0.25000000       0.00000000 </v>
   <v>       0.28571429       0.28571429       0.00000000 </v>
   <v>       0.32142857       0.28571429       0.00000000 </v>
   <v>       0.35714286       0.28571429       0.00000000 </v>
   <v>       0.39285714       0.28571429       0.00000000 </v>
   <v>       0.42857143       0.28571429       0.00000000 </v>
   <v>       0.46428571       0.28571429       0.00000000 </v>
   <v>       0.50000000       0.28571429       0.00000000 </v>
   <v>      -0.46428571       0.28571429       0.00000000 </v>
   <v>      -0.42857143       0.28571429       0.00000000 </v>
   <v>      -0.39285714       0.28571429       0.00000000 </v>
   <v>      -0.35714286       0.28571429       0.00000000 </v>
   <v>      -0.32142857       0.28571429       0.00000000 </v>
   <v>      -0.28571429       0.28571429       0.00000000 </v>
   <v>       0.32142857       0.32142857       0.00000000 </v>
   <v>       0.35714286       0.32142857       0.00000000 </v>
   <v>       0.39285714       0.32142857       0.00000000 </v>
   <v>       0.42857143       0.32142857       0.00000000 </v>
   <v>       0.46428571       0.32142857       0.00000000 </v>
   <v>       0.50000000       0.32142857       0.00000000 </v>
   <v>      -0.46428571       0.32142857       0.00000000 </v>
   <v>      -0.42857143       0.32142857       0.00000000 </v>
   <v>      -0.39285714       0.32142857       0.00000000 </v>
   <v>      -0.35714286       0.32142857       0.00000000 </v>
   <v>      -0.32142857       0.32142857       0.00000000 </v>
   <v>       0.35714286       0.35714286       0.00000000 </v>
   <v>       0.39285714       0.35714286       0.00000000 </v>
   <v>       0.42857143       0.35714286       0.00000000 </v>
   <v>       0.46428571       0.35714286       0.00000000 </v>
   <v>       0.50000000       0.35714286       0.00000000 </v>
   <v>      -0.46428571       0.35714286       0.00000000 </v>
   <v>      -0.42857143       0.35714286       0.00000000 </v>
   <v>      -0.39285714       0.35714286       0.00000000 </v>
   <v>      -0.35714286       0.35714286       0.00000000 </v>
   <v>       0.39285714       0.39285714       0.00000000 </v>
   <v>       0.42857143       0.39285714       0.00000000 </v>
   <v>       0.46428571       0.39285714       0.00000000 </v>
   <v>       0.50000000       0.39285714       0.00000000 </v>
   <v>      -0.46428571       0.39285714       0.00000000 </v>
   <v>      -0.42857143       0.39285714       0.00000000 </v>
   <v>      -0.39285714       0.39285714       0.00000000 </v>
   <v>       0.42857143       0.42857143       0.00000000 </v>
   <v>       0.46428571       0.42857143       0.00000000 </v>
   <v>       0.50000000       0.42857143       0.00000000 </v>
   <v>      -0.46428571       0.42857143       0.00000000 </v>
   <v>      -0.42857143       0.42857143       0.00000000 </v>
   <v>       0.46428571       0.46428571       0.00000000 </v>
   <v>       0.50000000       0.46428571       0.00000000 </v>
   <v>      -0.46428571       0.46428571       0.00000000 </v>
   <v>       0.50000000       0.50000000       0.00000000 </v>
   <v>       0.10714286       0.07142857       0.03571429 </v>
   <v>       0.14285714       0.07142857       0.03571429 </v>
   <v>       0.17857143       0.07142857       0.03571429 </v>
   <v>       0.21428571       0.07142857       0.03571429 </v>
   <v>       0.25000000       0.07142857       0.03571429 </v>
   <v>       0.28571429       0.07142857       0.03571429 </v>
   <v>       0.32142857       0.07142857       0.03571429 </v>
   <v>       0.35714286       0.07142857       0.03571429 </v>
   <v>       0.39285714       0.07142857       0.03571429 </v>
   <v>       0.42857143       0.07142857       0.03571429 </v>
   <v>       0.46428571       0.07142857       0.03571429 </v>
   <v>       0.50000000       0.07142857       0.03571429 </v>
   <v>      -0.46428571       0.07142857       0.03571429 </v>
   <v>       0.14285714       0.10714286       0.03571429 </v>
   <v>       0.17857143       0.10714286       0.03571429 </v>
   <v>       0.21428571       0.10714286       0.03571429 </v>
   <v>       0.25000000       0.10714286       0.03571429 </v>
   <v>       0.28571429       0.10714286       0.03571429 </v>
   <v>       0.32142857       0.10714286       0.03571429 </v>
   <v>       0.35714286       0.10714286       0.03571429 </v>
   <v>       0.39285714       0.10714286       0.03571429 </v>
   <v>       0.42857143       0.10714286       0.03571429 </v>
   <v>       0.46428571       0.10714286       0.03571429 </v>
   <v>       0.50000000       0.10714286       0.03571429 </v>
   <v>      -0.46428571       0.10714286       0.03571429 </v>
   <v>      -0.42857143       0.10714286       0.03571429 </v>
   <v>      -0.39285714       0.10714286       0.03571429 </v>
   <v>      -0.35714286       0.10714286       0.03571429 </v>
   <v>      -0.32142857       0.10714286       0.03571429 </v>
   <v>      -0.28571429       0.10714286       0.03571429 </v>
   <v>      -0.25000000       0.10714286       0.03571429 </v>
   <v>      -0.21428571       0.10714286       0.03571429 </v>
   <v>      -0.17857143       0.10714286       0.03571429 </v>
   <v>      -0.14285714       0.10714286       0.03571429 </v>
   <v>      -0.10714286       0.10714286       0.03571429 </v>
   <v>      -0.07142857       0.10714286       0.03571429 </v>
   <v>       0.17857143       0.14285714       0.03571429 </v>
   <v>       0.21428571       0.14285714       0.03571429 </v>
   <v>       0.25000000       0.14285714       0.03571429 </v>
   <v>       0.28571429       0.14285714       0.03571429 </v>
   <v>       0.32142857       0.14285714       0.03571429 </v>
   <v>       0.35714286       0.14285714       0.03571429 </v>
   <v>       0.39285714       0.14285714       0.03571429 </v>
   <v>       0.42857143       0.14285714       0.03571429 </v>
   <v>       0.46428571       0.14285714       0.03571429 </v>
   <v>       0.50000000       0.14285714       0.03571429 </v>
   <v>      -0.46428571       0.14285714       0.03571429 </v>
   <v>      -0.42857143       0.14285714       0.03571429 </v>
   <v>      -0.39285714       0.14285714       0.03571429 </v>
   <v>      -0.35714286       0.14285714       0.03571429 </v>
   <v>      -0.32142857       0.14285714       0.03571429 </v>
   <v>      -0.28571429       0.14285714       0.03571429 </v>
   <v>      -0.25000000       0.14285714       0.03571429 </v>
   <v>      -0.21428571       0.14285714       0.03571429 </v>
   <v>      -0.17857143       0.14285714       0.03571429 </v>
   <v>      -0.14285714       0.14285714       0.03571429 </v>
   <v>      -0.10714286       0.14285714       0.03571429 </v>
   <v>       0.21428571       0.17857143       0.03571429 </v>
   <v>       0.25000000       0.17857143       0.03571429 </v>
   <v>       0.28571429       0.17857143       0.03571429 </v>
   <v>       0.32142857       0.17857143       0.03571429 </v>
   <v>       0.35714286       0.17857143       0.03571429 </v>
   <v>       0.39285714       0.17857143       0.03571429 </v>
   <v>       0.42857143       0.17857143       0.03571429 </v>
   <v>       0.46428571       0.17857143       0.03571429 </v>
   <v>       0.50000000       0.17857143       0.03571429 </v>
   <v>      -0.46428571       0.17857143       0.03571429 </v>
   <v>      -0.42857143       0.17857143       0.03571429 </v>
   <v>      -0.39285714       0.17857143       0.03571429 </v>
   <v>      -0.35714286       0.17857143       0.03571429 </v>
   <v>      -0.32142857       0.17857143       0.03571429 </v>
   <v>      -0.28571429       0.17857143       0.03571429 </v>
   <v>      -0.25000000       0.17857143       0.03571429 </v>
   <v>      -0.21428571       0.17857143       0.03571429 </v>
   <v>      -0.17857143       0.17857143       0.03571429 </v>
   <v>      -0.14285714       0.17857143       0.03571429 </v>
   <v>       0.25000000       0.21428571       0.03571429 </v>
   <v>       0.28571429       0.21428571       0.03571429 </v>
   <v>       0.32142857       0.21428571       0.03571429 </v>
   <v>       0.35714286       0.21428571       0.03571429 </v>
   <v>       0.39285714       0.21428571       0.03571429 </v>
   <v>       0.42857143       0.21428571       0.03571429 </v>
   <v>       0.46428571       0.21428571       0.03571429 </v>
   <v>       0.50000000       0.21428571       0.03571429 </v>
   <v>      -0.46428571       0.21428571       0.03571429 </v>
   <v>      -0.42857143       0.21428571       0.03571429 </v>
   <v>      -0.39285714       0.21428571       0.03571429 </v>
   <v>      -0.35714286       0.21428571       0.03571429 </v>
   <v>      -0.32142857       0.21428571       0.03571429 </v>
   <v>      -0.28571429       0.21428571       0.03571429 </v>
   <v>      -0.25000000       0.21428571       0.03571429 </v>
   <v>      -0.21428571       0.21428571       0.03571429 </v>
   <v>      -0.17857143       0.21428571       0.03571429 </v>
   <v>       0.28571429       0.25000000       0.03571429 </v>
   <v>       0.32142857       0.25000000       0.03571429 </v>
   <v>       0.35714286       0.25000000       0.03571429 </v>
   <v>       0.39285714       0.25000000       0.03571429 </v>
   <v>       0.42857143       0.25000000       0.03571429 </v>
   <v>       0.46428571       0.25000000       0.03571429 </v>
   <v>       0.50000000       0.25000000       0.03571429 </v>
   <v>      -0.46428571       0.25000000       0.03571429 </v>
   <v>      -0.42857143       0.25000000       0.03571429 </v>
   <v>      -0.39285714       0.25000000       0.03571429 </v>
   <v>      -0.35714286       0.25000000       0.03571429 </v>
   <v>      -0.32142857       0.25000000       0.03571429 </v>
   <v>      -0.28571429       0.25000000       0.03571429 </v>
   <v>      -0.25000000       0.25000000       0.03571429 </v>
   <v>      -0.21428571       0.25000000       0.03571429 </v>
   <v>       0.32142857       0.28571429       0.03571429 </v>
   <v>       0.35714286       0.28571429       0.03571429 </v>
   <v>       0.39285714       0.28571429       0.03571429 </v>
   <v>       0.42857143       0.28571429       0.03571429 </v>
   <v>       0.46428571       0.28571429       0.03571429 </v>
   <v>       0.50000000       0.28571429       0.03571429 </v>
   <v>      -0.46428571       0.28571429       0.03571429 </v>
   <v>      -0.42857143       0.28571429       0.03571429 </v>
   <v>      -0.39285714       0.28571429       0.03571429 </v>
   <v>      -0.35714286       0.28571429       0.03571429 </v>
   <v>      -0.32142857       0.28571429       0.03571429 </v>
   <v>      -0.28571429       0.28571429       0.03571429 </v>
   <v>      -0.25000000       0.28571429       0.03571429 </v>
   <v>       0.35714286       0.32142857       0.03571429 </v>
   <v>       0.39285714       0.32142857       0.03571429 </v>
   <v>       0.42857143       0.32142857       0.03571429 </v>
   <v>       0.46428571       0.32142857       0.03571429 </v>
   <v>       0.50000000       0.32142857       0.03571429 </v>
   <v>      -0.46428571       0.32142857       0.03571429 </v>
   <v>      -0.42857143       0.32142857       0.03571429 </v>
   <v>      -0.39285714       0.32142857       0.03571429 </v>
   <v>      -0.35714286       0.32142857       0.03571429 </v>
   <v>      -0.32142857       0.32142857       0.03571429 </v>
   <v>      -0.28571429       0.32142857       0.03571429 </v>
   <v>       0.39285714       0.35714286       0.03571429 </v>
   <v>       0.42857143       0.35714286       0.03571429 </v>
   <v>       0.46428571       0.35714286       0.03571429 </v>
   <v>       0.50000000       0.35714286       0.03571429 </v>
   <v>      -0.46428571       0.35714286       0.03571429 </v>
   <v>      -0.42857143       0.35714286       0.03571429 </v>
   <v>      -0.39285714       0.35714286       0.03571429 </v>
   <v>      -0.35714286       0.35714286       0.03571429 </v>
   <v>      -0.32142857       0.35714286       0.03571429 </v>
   <v>       0.42857143       0.39285714       0.03571429 </v>
   <v>       0.46428571       0.39285714       0.03571429 </v>
   <v>       0.50000000       0.39285714       0.03571429 </v>
   <v>      -0.46428571       0.39285714       0.03571429 </v>
   <v>      -0.42857143       0.39285714       0.03571429 </v>
   <v>      -0.39285714       0.39285714       0.03571429 </v>
   <v>      -0.35714286       0.39285714       0.03571429 </v>
   <v>       0.46428571       0.42857143       0.03571429 </v>
   <v>       0.50000000       0.42857143       0.03571429 </v>
   <v>      -0.46428571       0.42857143       0.03571429 </v>
   <v>      -0.42857143       0.42857143       0.03571429 </v>
   <v>      -0.39285714       0.42857143       0.03571429 </v>
   <v>       0.50000000       0.46428571       0.03571429 </v>
   <v>      -0.46428571       0.46428571       0.03571429 </v>
   <v>      -0.42857143       0.46428571       0.03571429 </v>
   <v>      -0.46428571       0.50000000       0.03571429 </v>
   <v>       0.21428571       0.14285714       0.07142857 </v>
   <v>       0.25000000       0.14285714       0.07142857 </v>
   <v>       0.28571429       0.14285714       0.07142857 </v>
   <v>       0.32142857       0.14285714       0.07142857 </v>
   <v>       0.35714286       0.14285714       0.07142857 </v>
   <v>       0.39285714       0.14285714       0.07142857 </v>
   <v>       0.42857143       0.14285714       0.07142857 </v>
   <v>       0.46428571       0.14285714       0.07142857 </v>
   <v>       0.50000000       0.14285714       0.07142857 </v>
   <v>      -0.46428571       0.14285714       0.07142857 </v>
   <v>      -0.42857143       0.14285714       0.07142857 </v>
   <v>       0.25000000       0.17857143       0.07142857 </v>
   <v>       0.28571429       0.17857143       0.07142857 </v>
   <v>       0.32142857       0.17857143       0.07142857 </v>
   <v>       0.35714286       0.17857143       0.07142857 </v>
   <v>       0.39285714       0.17857143       0.07142857 </v>
   <v>       0.42857143       0.17857143       0.07142857 </v>
   <v>       0.46428571       0.17857143       0.07142857 </v>
   <v>       0.50000000       0.17857143       0.07142857 </v>
   <v>      -0.46428571       0.17857143       0.07142857 </v>
   <v>      -0.42857143       0.17857143       0.07142857 </v>
   <v>      -0.39285714       0.17857143       0.07142857 </v>
   <v>      -0.35714286       0.17857143       0.07142857 </v>
   <v>      -0.32142857       0.17857143       0.07142857 </v>
   <v>      -0.28571429       0.17857143       0.07142857 </v>
   <v>      -0.25000000       0.17857143       0.07142857 </v>
   <v>      -0.21428571       0.17857143       0.07142857 </v>
   <v>      -0.17857143       0.17857143       0.07142857 </v>
   <v>      -0.14285714       0.17857143       0.07142857 </v>
   <v>      -0.10714286       0.17857143       0.07142857 </v>
   <v>       0.28571429       0.21428571       0.07142857 </v>
   <v>       0.32142857       0.21428571       0.07142857 </v>
   <v>       0.35714286       0.21428571       0.07142857 </v>
   <v>       0.39285714       0.21428571       0.07142857 </v>
   <v>       0.42857143       0.21428571       0.07142857 </v>
   <v>       0.46428571       0.21428571       0.07142857 </v>
   <v>       0.50000000       0.21428571       0.07142857 </v>
   <v>      -0.46428571       0.21428571       0.07142857 </v>
   <v>      -0.42857143       0.21428571       0.07142857 </v>
   <v>      -0.39285714       0.21428571       0.07142857 </v>
   <v>      -0.35714286       0.21428571       0.07142857 </v>
   <v>      -0.32142857       0.21428571       0.07142857 </v>
   <v>      -0.28571429       0.21428571       0.07142857 </v>
   <v>      -0.25000000       0.21428571       0.07142857 </v>
   <v>      -0.21428571       0.21428571       0.07142857 </v>
   <v>      -0.17857143       0.21428571       0.07142857 </v>
   <v>      -0.14285714       0.21428571       0.07142857 </v>
   <v>       0.32142857       0.25000000       0.07142857 </v>
   <v>       0.35714286       0.25000000       0.07142857 </v>
   <v>       0.39285714       0.25000000       0.07142857 </v>
   <v>       0.42857143       0.25000000       0.07142857 </v>
   <v>       0.46428571       0.25000000       0.07142857 </v>
   <v>       0.50000000       0.25000000       0.07142857 </v>
   <v>      -0.46428571       0.25000000       0.07142857 </v>
   <v>      -0.42857143       0.25000000       0.07142857 </v>
   <v>      -0.39285714       0.25000000       0.07142857 </v>
   <v>      -0.35714286       0.25000000       0.07142857 </v>
   <v>      -0.32142857       0.25000000       0.07142857 </v>
   <v>      -0.28571429       0.25000000       0.07142857 </v>
   <v>      -0.25000000       0.25000000       0.07142857 </v>
   <v>      -0.21428571       0.25000000       0.07142857 </v>
   <v>      -0.17857143       0.25000000       0.07142857 </v>
   <v>       0.35714286       0.28571429       0.07142857 </v>
   <v>       0.39285714       0.28571429       0.07142857 </v>
   <v>       0.42857143       0.28571429       0.07142857 </v>
   <v>       0.46428571       0.28571429       0.07142857 </v>
   <v>       0.50000000       0.28571429       0.07142857 </v>
   <v>      -0.46428571       0.28571429       0.07142857 </v>
   <v>      -0.42857143       0.28571429       0.07142857 </v>
   <v>      -0.39285714       0.28571429       0.07142857 </v>
   <v>      -0.35714286       0.28571429       0.07142857 </v>
   <v>      -0.32142857       0.28571429       0.07142857 </v>
   <v>      -0.28571429       0.28571429       0.07142857 </v>
   <v>      -0.25000000       0.28571429       0.07142857 </v>
   <v>      -0.21428571       0.28571429       0.07142857 </v>
   <v>       0.39285714       0.32142857       0.07142857 </v>
   <v>       0.42857143       0.32142857       0.07142857 </v>
   <v>       0.46428571       0.32142857       0.07142857 </v>
   <v>       0.50000000       0.32142857       0.07142857 </v>
   <v>      -0.46428571       0.32142857       0.07142857 </v>
   <v>      -0.42857143       0.32142857       0.07142857 </v>
   <v>      -0.39285714       0.32142857       0.07142857 </v>
   <v>      -0.35714286       0.32142857       0.07142857 </v>
   <v>      -0.32142857       0.32142857       0.07142857 </v>
   <v>      -0.28571429       0.32142857       0.07142857 </v>
   <v>      -0.25000000       0.32142857       0.07142857 </v>
   <v>       0.42857143       0.35714286       0.07142857 </v>
   <v>       0.46428571       0.35714286       0.07142857 </v>
   <v>       0.50000000       0.35714286       0.07142857 </v>
   <v>      -0.46428571       0.35714286       0.07142857 </v>
   <v>      -0.42857143       0.35714286       0.07142857 </v>
   <v>      -0.39285714       0.35714286       0.07142857 </v>
   <v>      -0.35714286       0.35714286       0.07142857 </v>
   <v>      -0.32142857       0.35714286       0.07142857 </v>
   <v>      -0.28571429       0.35714286       0.07142857 </v>
   <v>       0.46428571       0.39285714       0.07142857 </v>
   <v>       0.50000000       0.39285714       0.07142857 </v>
   <v>      -0.46428571       0.39285714       0.07142857 </v>
   <v>      -0.42857143       0.39285714       0.07142857 </v>
   <v>      -0.39285714       0.39285714       0.07142857 </v>
   <v>      -0.35714286       0.39285714       0.07142857 </v>
   <v>      -0.32142857       0.39285714       0.07142857 </v>
   <v>       0.50000000       0.42857143       0.07142857 </v>
   <v>      -0.46428571       0.42857143       0.07142857 </v>
   <v>      -0.42857143       0.42857143       0.07142857 </v>
   <v>      -0.39285714       0.42857143       0.07142857 </v>
   <v>      -0.35714286       0.42857143       0.07142857 </v>
   <v>      -0.46428571       0.46428571       0.07142857 </v>
   <v>      -0.42857143       0.46428571       0.07142857 </v>
   <v>      -0.39285714       0.46428571       0.07142857 </v>
   <v>      -0.42857143       0.50000000       0.07142857 </v>
   <v>       0.32142857       0.21428571       0.10714286 </v>
   <v>       0.35714286       0.21428571       0.10714286 </v>
   <v>       0.39285714       0.21428571       0.10714286 </v>
   <v>       0.42857143       0.21428571       0.10714286 </v>
   <v>       0.46428571       0.21428571       0.10714286 </v>
   <v>       0.50000000       0.21428571       0.10714286 </v>
   <v>      -0.46428571       0.21428571       0.10714286 </v>
   <v>      -0.42857143       0.21428571       0.10714286 </v>
   <v>      -0.39285714       0.21428571       0.10714286 </v>
   <v>       0.35714286       0.25000000       0.10714286 </v>
   <v>       0.39285714       0.25000000       0.10714286 </v>
   <v>       0.42857143       0.25000000       0.10714286 </v>
   <v>       0.46428571       0.25000000       0.10714286 </v>
   <v>       0.50000000       0.25000000       0.10714286 </v>
   <v>      -0.46428571       0.25000000       0.10714286 </v>
   <v>      -0.42857143       0.25000000       0.10714286 </v>
   <v>      -0.39285714       0.25000000       0.10714286 </v>
   <v>      -0.35714286       0.25000000       0.10714286 </v>
   <v>      -0.32142857       0.25000000       0.10714286 </v>
   <v>      -0.28571429       0.25000000       0.10714286 </v>
   <v>      -0.25000000       0.25000000       0.10714286 </v>
   <v>      -0.21428571       0.25000000       0.10714286 </v>
   <v>      -0.17857143       0.25000000       0.10714286 </v>
   <v>      -0.14285714       0.25000000       0.10714286 </v>
   <v>       0.39285714       0.28571429       0.10714286 </v>
   <v>       0.42857143       0.28571429       0.10714286 </v>
   <v>       0.46428571       0.28571429       0.10714286 </v>
   <v>       0.50000000       0.28571429       0.10714286 </v>
   <v>      -0.46428571       0.28571429       0.10714286 </v>
   <v>      -0.42857143       0.28571429       0.10714286 </v>
   <v>      -0.39285714       0.28571429       0.10714286 </v>
   <v>      -0.35714286       0.28571429       0.10714286 </v>
   <v>      -0.32142857       0.28571429       0.10714286 </v>
   <v>      -0.28571429       0.28571429       0.10714286 </v>
   <v>      -0.25000000       0.28571429       0.10714286 </v>
   <v>      -0.21428571       0.28571429       0.10714286 </v>
   <v>      -0.17857143       0.28571429       0.10714286 </v>
   <v>       0.42857143       0.32142857       0.10714286 </v>
   <v>       0.46428571       0.32142857       0.10714286 </v>
   <v>       0.50000000       0.32142857       0.10714286 </v>
   <v>      -0.46428571       0.32142857       0.10714286 </v>
   <v>      -0.42857143       0.32142857       0.10714286 </v>
   <v>      -0.39285714       0.32142857       0.10714286 </v>
   <v>      -0.35714286       0.32142857       0.10714286 </v>
   <v>      -0.32142857       0.32142857       0.10714286 </v>
   <v>      -0.28571429       0.32142857       0.10714286 </v>
   <v>      -0.25000000       0.32142857       0.10714286 </v>
   <v>      -0.21428571       0.32142857       0.10714286 </v>
   <v>       0.46428571       0.35714286       0.10714286 </v>
   <v>       0.50000000       0.35714286       0.10714286 </v>
   <v>      -0.46428571       0.35714286       0.10714286 </v>
   <v>      -0.42857143       0.35714286       0.10714286 </v>
   <v>      -0.39285714       0.35714286       0.10714286 </v>
   <v>      -0.35714286       0.35714286       0.10714286 </v>
   <v>      -0.32142857       0.35714286       0.10714286 </v>
   <v>      -0.28571429       0.35714286       0.10714286 </v>
   <v>      -0.25000000       0.35714286       0.10714286 </v>
   <v>       0.50000000       0.39285714       0.10714286 </v>
   <v>      -0.46428571       0.39285714       0.10714286 </v>
   <v>      -0.42857143       0.39285714       0.10714286 </v>
   <v>      -0.39285714       0.39285714       0.10714286 </v>
   <v>      -0.35714286       0.39285714       0.10714286 </v>
   <v>      -0.32142857       0.39285714       0.10714286 </v>
   <v>      -0.28571429       0.39285714       0.10714286 </v>
   <v>      -0.46428571       0.42857143       0.10714286 </v>
   <v>      -0.42857143       0.42857143       0.10714286 </v>
   <v>      -0.39285714       0.42857143       0.10714286 </v>
   <v>      -0.35714286       0.42857143       0.10714286 </v>
   <v>      -0.32142857       0.42857143       0.10714286 </v>
   <v>      -0.42857143       0.46428571       0.10714286 </v>
   <v>      -0.39285714       0.46428571       0.10714286 </v>
   <v>      -0.35714286       0.46428571       0.10714286 </v>
   <v>      -0.39285714       0.50000000       0.10714286 </v>
   <v>       0.42857143       0.28571429       0.14285714 </v>
   <v>       0.46428571       0.28571429       0.14285714 </v>
   <v>       0.50000000       0.28571429       0.14285714 </v>
   <v>      -0.46428571       0.28571429       0.14285714 </v>
   <v>      -0.42857143       0.28571429       0.14285714 </v>
   <v>      -0.39285714       0.28571429       0.14285714 </v>
   <v>      -0.35714286       0.28571429       0.14285714 </v>
   <v>       0.46428571       0.32142857       0.14285714 </v>
   <v>       0.50000000       0.32142857       0.14285714 </v>
   <v>      -0.46428571       0.32142857       0.14285714 </v>
   <v>      -0.42857143       0.32142857       0.14285714 </v>
   <v>      -0.39285714       0.32142857       0.14285714 </v>
   <v>      -0.35714286       0.32142857       0.14285714 </v>
   <v>      -0.32142857       0.32142857       0.14285714 </v>
   <v>      -0.28571429       0.32142857       0.14285714 </v>
   <v>      -0.25000000       0.32142857       0.14285714 </v>
   <v>      -0.21428571       0.32142857       0.14285714 </v>
   <v>      -0.17857143       0.32142857       0.14285714 </v>
   <v>       0.50000000       0.35714286       0.14285714 </v>
   <v>      -0.46428571       0.35714286       0.14285714 </v>
   <v>      -0.42857143       0.35714286       0.14285714 </v>
   <v>      -0.39285714       0.35714286       0.14285714 </v>
   <v>      -0.35714286       0.35714286       0.14285714 </v>
   <v>      -0.32142857       0.35714286       0.14285714 </v>
   <v>      -0.28571429       0.35714286       0.14285714 </v>
   <v>      -0.25000000       0.35714286       0.14285714 </v>
   <v>      -0.21428571       0.35714286       0.14285714 </v>
   <v>      -0.46428571       0.39285714       0.14285714 </v>
   <v>      -0.42857143       0.39285714       0.14285714 </v>
   <v>      -0.39285714       0.39285714       0.14285714 </v>
   <v>      -0.35714286       0.39285714       0.14285714 </v>
   <v>      -0.32142857       0.39285714       0.14285714 </v>
   <v>      -0.28571429       0.39285714       0.14285714 </v>
   <v>      -0.25000000       0.39285714       0.14285714 </v>
   <v>      -0.42857143       0.42857143       0.14285714 </v>
   <v>      -0.39285714       0.42857143       0.14285714 </v>
   <v>      -0.35714286       0.42857143       0.14285714 </v>
   <v>      -0.32142857       0.42857143       0.14285714 </v>
   <v>      -0.28571429       0.42857143       0.14285714 </v>
   <v>      -0.39285714       0.46428571       0.14285714 </v>
   <v>      -0.35714286       0.46428571       0.14285714 </v>
   <v>      -0.32142857       0.46428571       0.14285714 </v>
   <v>      -0.35714286       0.50000000       0.14285714 </v>
   <v>      -0.46428571       0.35714286       0.17857143 </v>
   <v>      -0.42857143       0.35714286       0.17857143 </v>
   <v>      -0.39285714       0.35714286       0.17857143 </v>
   <v>      -0.35714286       0.35714286       0.17857143 </v>
   <v>      -0.32142857       0.35714286       0.17857143 </v>
   <v>      -0.42857143       0.39285714       0.17857143 </v>
   <v>      -0.39285714       0.39285714       0.17857143 </v>
   <v>      -0.35714286       0.39285714       0.17857143 </v>
   <v>      -0.32142857       0.39285714       0.17857143 </v>
   <v>      -0.28571429       0.39285714       0.17857143 </v>
   <v>      -0.25000000       0.39285714       0.17857143 </v>
   <v>      -0.21428571       0.39285714       0.17857143 </v>
   <v>      -0.39285714       0.42857143       0.17857143 </v>
   <v>      -0.35714286       0.42857143       0.17857143 </v>
   <v>      -0.32142857       0.42857143       0.17857143 </v>
   <v>      -0.28571429       0.42857143       0.17857143 </v>
   <v>      -0.25000000       0.42857143       0.17857143 </v>
   <v>      -0.35714286       0.46428571       0.17857143 </v>
   <v>      -0.32142857       0.46428571       0.17857143 </v>
   <v>      -0.28571429       0.46428571       0.17857143 </v>
   <v>      -0.32142857       0.50000000       0.17857143 </v>
   <v>      -0.35714286       0.42857143       0.21428571 </v>
   <v>      -0.32142857       0.42857143       0.21428571 </v>
   <v>      -0.28571429       0.42857143       0.21428571 </v>
   <v>      -0.32142857       0.46428571       0.21428571 </v>
   <v>      -0.28571429       0.46428571       0.21428571 </v>
   <v>      -0.25000000       0.46428571       0.21428571 </v>
   <v>      -0.28571429       0.50000000       0.21428571 </v>
   <v>      -0.25000000       0.50000000       0.25000000 </v>
  </varray>
  <varray name="weights" >
   <v>       0.00004555 </v>
   <v>       0.00036443 </v>
   <v>       0.00036443 </v>
   <v>       0.00036443 </v>
   <v>       0.00036443 </v>
   <v>       0.00036443 </v>
   <v>       0.00036443 </v>
   <v>       0.00036443 </v>
   <v>       0.00036443 </v>
   <v>       0.00036443 </v>
   <v>       0.00036443 </v>
   <v>       0.00036443 </v>
   <v>       0.00036443 </v>
   <v>       0.00036443 </v>
   <v>       0.00018222 </v>
   <v>       0.00027332 </v>
   <v>       0.00109329 </v>
   <v>       0.00109329 </v>
   <v>       0.00109329 </v>
   <v>       0.00109329 </v>
   <v>       0.00109329 </v>
   <v>       0.00109329 </v>
   <v>       0.00109329 </v>
   <v>       0.00109329 </v>
   <v>       0.00109329 </v>
   <v>       0.00109329 </v>
   <v>       0.00109329 </v>
   <v>       0.00109329 </v>
   <v>       0.00109329 </v>
   <v>       0.00109329 </v>
   <v>       0.00109329 </v>
   <v>       0.00109329 </v>
   <v>       0.00109329 </v>
   <v>       0.00109329 </v>
   <v>       0.00109329 </v>
   <v>       0.00109329 </v>
   <v>       0.00109329 </v>
   <v>       0.00109329 </v>
   <v>       0.00109329 </v>
   <v>       0.00109329 </v>
   <v>       0.00109329 </v>
   <v>       0.00054665 </v>
   <v>       0.00027332 </v>
   <v>       0.00109329 </v>
   <v>       0.00109329 </v>
   <v>       0.00109329 </v>
   <v>       0.00109329 </v>
   <v>       0.00109329 </v>
   <v>       0.00109329 </v>
   <v>       0.00109329 </v>
   <v>       0.00109329 </v>
   <v>       0.00109329 </v>
   <v>       0.00109329 </v>
   <v>       0.00109329 </v>
   <v>       0.00109329 </v>
   <v>       0.00109329 </v>
   <v>       0.00109329 </v>
   <v>       0.00109329 </v>
   <v>       0.00109329 </v>
   <v>       0.00109329 </v>
   <v>       0.00109329 </v>
   <v>       0.00109329 </v>
   <v>       0.00109329 </v>
   <v>       0.00109329 </v>
   <v>       0.00109329 </v>
   <v>       0.00109329 </v>
   <v>       0.00054665 </v>
   <v>       0.00027332 </v>
   <v>       0.00109329 </v>
   <v>       0.00109329 </v>
   <v>       0.00109329 </v>
   <v>       0.00109329 </v>
   <v>       0.00109329 </v>
   <v>       0.00109329 </v>
   <v>       0.00109329 </v>
   <v>       0.00109329 </v>
   <v>       0.00109329 </v>
   <v>       0.00109329 </v>
   <v>       0.00109329 </v>
   <v>       0.00109329 </v>
   <v>       0.00109329 </v>
   <v>       0.00109329 </v>
   <v>       0.00109329 </v>
   <v>       0.00109329 </v>
   <v>       0.00109329 </v>
   <v>       0.00109329 </v>
   <v>       0.00109329 </v>
   <v>       0.00109329 </v>
   <v>       0.00109329 </v>
   <v>       0.00054665 </v>
   <v>       0.00027332 </v>
   <v>       0.00109329 </v>
   <v>       0.00109329 </v>
   <v>       0.00109329 </v>
   <v>       0.00109329 </v>
   <v>       0.00109329 </v>
   <v>       0.00109329 </v>
   <v>       0.00109329 </v>
   <v>       0.00109329 </v>
   <v>       0.00109329 </v>
   <v>       0.00109329 </v>
   <v>       0.00109329 </v>
   <v>       0.00109329 </v>
   <v>       0.00109329 </v>
   <v>       0.00109329 </v>
   <v>       0.00109329 </v>
   <v>       0.00109329 </v>
   <v>       0.00109329 </v>
   <v>       0.00109329 </v>
   <v>       0.00109329 </v>
   <v>       0.00054665 </v>
   <v>       0.00027332 </v>
   <v>       0.00109329 </v>
   <v>       0.00109329 </v>
   <v>       0.00109329 </v>
   <v>       0.00109329 </v>
   <v>       0.00109329 </v>
   <v>       0.00109329 </v>
   <v>       0.00109329 </v>
   <v>       0.00109329 </v>
   <v>       0.00109329 </v>
   <v>       0.00109329 </v>
   <v>       0.00109329 </v>
   <v>       0.00109329 </v>
   <v>       0.00109329 </v>
   <v>       0.00109329 </v>
   <v>       0.00109329 </v>
   <v>       0.00109329 </v>
   <v>       0.00109329 </v>
   <v>       0.00054665 </v>
   <v>       0.00027332 </v>
   <v>       0.00109329 </v>
   <v>       0.00109329 </v>
   <v>       0.00109329 </v>
   <v>       0.00109329 </v>
   <v>       0.00109329 </v>
   <v>       0.00109329 </v>
   <v>       0.00109329 </v>
   <v>       0.00109329 </v>
   <v>       0.00109329 </v>
   <v>       0.00109329 </v>
   <v>       0.00109329 </v>
   <v>       0.00109329 </v>
   <v>       0.00109329 </v>
   <v>       0.00109329 </v>
   <v>       0.00109329 </v>
   <v>       0.00054665 </v>
   <v>       0.00027332 </v>
   <v>       0.00109329 </v>
   <v>       0.00109329 </v>
   <v>       0.00109329 </v>
   <v>       0.00109329 </v>
   <v>       0.00109329 </v>
   <v>       0.00109329 </v>
   <v>       0.00109329 </v>
   <v>       0.00109329 </v>
   <v>       0.00109329 </v>
   <v>       0.00109329 </v>
   <v>       0.00109329 </v>
   <v>       0.00109329 </v>
   <v>       0.00109329 </v>
   <v>       0.00054665 </v>
   <v>       0.00027332 </v>
   <v>       0.00109329 </v>
   <v>       0.00109329 </v>
   <v>       0.00109329 </v>
   <v>       0.00109329 </v>
   <v>       0.00109329 </v>
   <v>       0.00109329 </v>
   <v>       0.00109329 </v>
   <v>       0.00109329 </v>
   <v>       0.00109329 </v>
   <v>       0.00109329 </v>
   <v>       0.00109329 </v>
   <v>       0.00054665 </v>
   <v>       0.00027332 </v>
   <v>       0.00109329 </v>
   <v>       0.00109329 </v>
   <v>       0.00109329 </v>
   <v>       0.00109329 </v>
   <v>       0.00109329 </v>
   <v>       0.00109329 </v>
   <v>       0.00109329 </v>
   <v>       0.00109329 </v>
   <v>       0.00109329 </v>
   <v>       0.00054665 </v>
   <v>       0.00027332 </v>
   <v>       0.00109329 </v>
   <v>       0.00109329 </v>
   <v>       0.00109329 </v>
   <v>       0.00109329 </v>
   <v>       0.00109329 </v>
   <v>       0.00109329 </v>
   <v>       0.00109329 </v>
   <v>       0.00054665 </v>
   <v>       0.00027332 </v>
   <v>       0.00109329 </v>
   <v>       0.00109329 </v>
   <v>       0.00109329 </v>
   <v>       0.00109329 </v>
   <v>       0.00109329 </v>
   <v>       0.00054665 </v>
   <v>       0.00027332 </v>
   <v>       0.00109329 </v>
   <v>       0.00109329 </v>
   <v>       0.00109329 </v>
   <v>       0.00054665 </v>
   <v>       0.00027332 </v>
   <v>       0.00109329 </v>
   <v>       0.00054665 </v>
   <v>       0.00013666 </v>
   <v>       0.00109329 </v>
   <v>       0.00218659 </v>
   <v>       0.00218659 </v>
   <v>       0.00218659 </v>
   <v>       0.00218659 </v>
   <v>       0.00218659 </v>
   <v>       0.00218659 </v>
   <v>       0.00218659 </v>
   <v>       0.00218659 </v>
   <v>       0.00218659 </v>
   <v>       0.00218659 </v>
   <v>       0.00218659 </v>
   <v>       0.00109329 </v>
   <v>       0.00109329 </v>
   <v>       0.00218659 </v>
   <v>       0.00218659 </v>
   <v>       0.00218659 </v>
   <v>       0.00218659 </v>
   <v>       0.00218659 </v>
   <v>       0.00218659 </v>
   <v>       0.00218659 </v>
   <v>       0.00218659 </v>
   <v>       0.00218659 </v>
   <v>       0.00218659 </v>
   <v>       0.00218659 </v>
   <v>       0.00218659 </v>
   <v>       0.00218659 </v>
   <v>       0.00218659 </v>
   <v>       0.00218659 </v>
   <v>       0.00218659 </v>
   <v>       0.00218659 </v>
   <v>       0.00218659 </v>
   <v>       0.00218659 </v>
   <v>       0.00218659 </v>
   <v>       0.00218659 </v>
   <v>       0.00109329 </v>
   <v>       0.00109329 </v>
   <v>       0.00218659 </v>
   <v>       0.00218659 </v>
   <v>       0.00218659 </v>
   <v>       0.00218659 </v>
   <v>       0.00218659 </v>
   <v>       0.00218659 </v>
   <v>       0.00218659 </v>
   <v>       0.00218659 </v>
   <v>       0.00218659 </v>
   <v>       0.00218659 </v>
   <v>       0.00218659 </v>
   <v>       0.00218659 </v>
   <v>       0.00218659 </v>
   <v>       0.00218659 </v>
   <v>       0.00218659 </v>
   <v>       0.00218659 </v>
   <v>       0.00218659 </v>
   <v>       0.00218659 </v>
   <v>       0.00218659 </v>
   <v>       0.00109329 </v>
   <v>       0.00109329 </v>
   <v>       0.00218659 </v>
   <v>       0.00218659 </v>
   <v>       0.00218659 </v>
   <v>       0.00218659 </v>
   <v>       0.00218659 </v>
   <v>       0.00218659 </v>
   <v>       0.00218659 </v>
   <v>       0.00218659 </v>
   <v>       0.00218659 </v>
   <v>       0.00218659 </v>
   <v>       0.00218659 </v>
   <v>       0.00218659 </v>
   <v>       0.00218659 </v>
   <v>       0.00218659 </v>
   <v>       0.00218659 </v>
   <v>       0.00218659 </v>
   <v>       0.00218659 </v>
   <v>       0.00109329 </v>
   <v>       0.00109329 </v>
   <v>       0.00218659 </v>
   <v>       0.00218659 </v>
   <v>       0.00218659 </v>
   <v>       0.00218659 </v>
   <v>       0.00218659 </v>
   <v>       0.00218659 </v>
   <v>       0.00218659 </v>
   <v>       0.00218659 </v>
   <v>       0.00218659 </v>
   <v>       0.00218659 </v>
   <v>       0.00218659 </v>
   <v>       0.00218659 </v>
   <v>       0.00218659 </v>
   <v>       0.00218659 </v>
   <v>       0.00218659 </v>
   <v>       0.00109329 </v>
   <v>       0.00109329 </v>
   <v>       0.00218659 </v>
   <v>       0.00218659 </v>
   <v>       0.00218659 </v>
   <v>       0.00218659 </v>
   <v>       0.00218659 </v>
   <v>       0.00218659 </v>
   <v>       0.00218659 </v>
   <v>       0.00218659 </v>
   <v>       0.00218659 </v>
   <v>       0.00218659 </v>
   <v>       0.00218659 </v>
   <v>       0.00218659 </v>
   <v>       0.00218659 </v>
   <v>       0.00109329 </v>
   <v>       0.00109329 </v>
   <v>       0.00218659 </v>
   <v>       0.00218659 </v>
   <v>       0.00218659 </v>
   <v>       0.00218659 </v>
   <v>       0.00218659 </v>
   <v>       0.00218659 </v>
   <v>       0.00218659 </v>
   <v>       0.00218659 </v>
   <v>       0.00218659 </v>
   <v>       0.00218659 </v>
   <v>       0.00218659 </v>
   <v>       0.00109329 </v>
   <v>       0.00109329 </v>
   <v>       0.00218659 </v>
   <v>       0.00218659 </v>
   <v>       0.00218659 </v>
   <v>       0.00218659 </v>
   <v>       0.00218659 </v>
   <v>       0.00218659 </v>
   <v>       0.00218659 </v>
   <v>       0.00218659 </v>
   <v>       0.00218659 </v>
   <v>       0.00109329 </v>
   <v>       0.00109329 </v>
   <v>       0.00218659 </v>
   <v>       0.00218659 </v>
   <v>       0.00218659 </v>
   <v>       0.00218659 </v>
   <v>       0.00218659 </v>
   <v>       0.00218659 </v>
   <v>       0.00218659 </v>
   <v>       0.00109329 </v>
   <v>       0.00109329 </v>
   <v>       0.00218659 </v>
   <v>       0.00218659 </v>
   <v>       0.00218659 </v>
   <v>       0.00218659 </v>
   <v>       0.00218659 </v>
   <v>       0.00109329 </v>
   <v>       0.00109329 </v>
   <v>       0.00218659 </v>
   <v>       0.00218659 </v>
   <v>       0.00218659 </v>
   <v>       0.00109329 </v>
   <v>       0.00109329 </v>
   <v>       0.00218659 </v>
   <v>       0.00109329 </v>
   <v>       0.00054665 </v>
   <v>       0.00109329 </v>
   <v>       0.00218659 </v>
   <v>       0.00218659 </v>
   <v>       0.00218659 </v>
   <v>       0.00218659 </v>
   <v>       0.00218659 </v>
   <v>       0.00218659 </v>
   <v>       0.00218659 </v>
   <v>       0.00218659 </v>
   <v>       0.00218659 </v>
   <v>       0.00109329 </v>
   <v>       0.00109329 </v>
   <v>       0.00218659 </v>
   <v>       0.00218659 </v>
   <v>       0.00218659 </v>
   <v>       0.00218659 </v>
   <v>       0.00218659 </v>
   <v>       0.00218659 </v>
   <v>       0.00218659 </v>
   <v>       0.00218659 </v>
   <v>       0.00218659 </v>
   <v>       0.00218659 </v>
   <v>       0.00218659 </v>
   <v>       0.00218659 </v>
   <v>       0.00218659 </v>
   <v>       0.00218659 </v>
   <v>       0.00218659 </v>
   <v>       0.00218659 </v>
   <v>       0.00218659 </v>
   <v>       0.00109329 </v>
   <v>       0.00109329 </v>
   <v>       0.00218659 </v>
   <v>       0.00218659 </v>
   <v>       0.00218659 </v>
   <v>       0.00218659 </v>
   <v>       0.00218659 </v>
   <v>       0.00218659 </v>
   <v>       0.00218659 </v>
   <v>       0.00218659 </v>
   <v>       0.00218659 </v>
   <v>       0.00218659 </v>
   <v>       0.00218659 </v>
   <v>       0.00218659 </v>
   <v>       0.00218659 </v>
   <v>       0.00218659 </v>
   <v>       0.00218659 </v>
   <v>       0.00109329 </v>
   <v>       0.00109329 </v>
   <v>       0.00218659 </v>
   <v>       0.00218659 </v>
   <v>       0.00218659 </v>
   <v>       0.00218659 </v>
   <v>       0.00218659 </v>
   <v>       0.00218659 </v>
   <v>       0.00218659 </v>
   <v>       0.00218659 </v>
   <v>       0.00218659 </v>
   <v>       0.00218659 </v>
   <v>       0.00218659 </v>
   <v>       0.00218659 </v>
   <v>       0.00218659 </v>
   <v>       0.00109329 </v>
   <v>       0.00109329 </v>
   <v>       0.00218659 </v>
   <v>       0.00218659 </v>
   <v>       0.00218659 </v>
   <v>       0.00218659 </v>
   <v>       0.00218659 </v>
   <v>       0.00218659 </v>
   <v>       0.00218659 </v>
   <v>       0.00218659 </v>
   <v>       0.00218659 </v>
   <v>       0.00218659 </v>
   <v>       0.00218659 </v>
   <v>       0.00109329 </v>
   <v>       0.00109329 </v>
   <v>       0.00218659 </v>
   <v>       0.00218659 </v>
   <v>       0.00218659 </v>
   <v>       0.00218659 </v>
   <v>       0.00218659 </v>
   <v>       0.00218659 </v>
   <v>       0.00218659 </v>
   <v>       0.00218659 </v>
   <v>       0.00218659 </v>
   <v>       0.00109329 </v>
   <v>       0.00109329 </v>
   <v>       0.00218659 </v>
   <v>       0.00218659 </v>
   <v>       0.00218659 </v>
   <v>       0.00218659 </v>
   <v>       0.00218659 </v>
   <v>       0.00218659 </v>
   <v>       0.00218659 </v>
   <v>       0.00109329 </v>
   <v>       0.00109329 </v>
   <v>       0.00218659 </v>
   <v>       0.00218659 </v>
   <v>       0.00218659 </v>
   <v>       0.00218659 </v>
   <v>       0.00218659 </v>
   <v>       0.00109329 </v>
   <v>       0.00109329 </v>
   <v>       0.00218659 </v>
   <v>       0.00218659 </v>
   <v>       0.00218659 </v>
   <v>       0.00109329 </v>
   <v>       0.00109329 </v>
   <v>       0.00218659 </v>
   <v>       0.00109329 </v>
   <v>       0.00054665 </v>
   <v>       0.00109329 </v>
   <v>       0.00218659 </v>
   <v>       0.00218659 </v>
   <v>       0.00218659 </v>
   <v>       0.00218659 </v>
   <v>       0.00218659 </v>
   <v>       0.00218659 </v>
   <v>       0.00218659 </v>
   <v>       0.00109329 </v>
   <v>       0.00109329 </v>
   <v>       0.00218659 </v>
   <v>       0.00218659 </v>
   <v>       0.00218659 </v>
   <v>       0.00218659 </v>
   <v>       0.00218659 </v>
   <v>       0.00218659 </v>
   <v>       0.00218659 </v>
   <v>       0.00218659 </v>
   <v>       0.00218659 </v>
   <v>       0.00218659 </v>
   <v>       0.00218659 </v>
   <v>       0.00218659 </v>
   <v>       0.00218659 </v>
   <v>       0.00109329 </v>
   <v>       0.00109329 </v>
   <v>       0.00218659 </v>
   <v>       0.00218659 </v>
   <v>       0.00218659 </v>
   <v>       0.00218659 </v>
   <v>       0.00218659 </v>
   <v>       0.00218659 </v>
   <v>       0.00218659 </v>
   <v>       0.00218659 </v>
   <v>       0.00218659 </v>
   <v>       0.00218659 </v>
   <v>       0.00218659 </v>
   <v>       0.00109329 </v>
   <v>       0.00109329 </v>
   <v>       0.00218659 </v>
   <v>       0.00218659 </v>
   <v>       0.00218659 </v>
   <v>       0.00218659 </v>
   <v>       0.00218659 </v>
   <v>       0.00218659 </v>
   <v>       0.00218659 </v>
   <v>       0.00218659 </v>
   <v>       0.00218659 </v>
   <v>       0.00109329 </v>
   <v>       0.00109329 </v>
   <v>       0.00218659 </v>
   <v>       0.00218659 </v>
   <v>       0.00218659 </v>
   <v>       0.00218659 </v>
   <v>       0.00218659 </v>
   <v>       0.00218659 </v>
   <v>       0.00218659 </v>
   <v>       0.00109329 </v>
   <v>       0.00109329 </v>
   <v>       0.00218659 </v>
   <v>       0.00218659 </v>
   <v>       0.00218659 </v>
   <v>       0.00218659 </v>
   <v>       0.00218659 </v>
   <v>       0.00109329 </v>
   <v>       0.00109329 </v>
   <v>       0.00218659 </v>
   <v>       0.00218659 </v>
   <v>       0.00218659 </v>
   <v>       0.00109329 </v>
   <v>       0.00109329 </v>
   <v>       0.00218659 </v>
   <v>       0.00109329 </v>
   <v>       0.00054665 </v>
   <v>       0.00109329 </v>
   <v>       0.00218659 </v>
   <v>       0.00218659 </v>
   <v>       0.00218659 </v>
   <v>       0.00218659 </v>
   <v>       0.00218659 </v>
   <v>       0.00109329 </v>
   <v>       0.00109329 </v>
   <v>       0.00218659 </v>
   <v>       0.00218659 </v>
   <v>       0.00218659 </v>
   <v>       0.00218659 </v>
   <v>       0.00218659 </v>
   <v>       0.00218659 </v>
   <v>       0.00218659 </v>
   <v>       0.00218659 </v>
   <v>       0.00218659 </v>
   <v>       0.00109329 </v>
   <v>       0.00109329 </v>
   <v>       0.00218659 </v>
   <v>       0.00218659 </v>
   <v>       0.00218659 </v>
   <v>       0.00218659 </v>
   <v>       0.00218659 </v>
   <v>       0.00218659 </v>
   <v>       0.00218659 </v>
   <v>       0.00109329 </v>
   <v>       0.00109329 </v>
   <v>       0.00218659 </v>
   <v>       0.00218659 </v>
   <v>       0.00218659 </v>
   <v>       0.00218659 </v>
   <v>       0.00218659 </v>
   <v>       0.00109329 </v>
   <v>       0.00109329 </v>
   <v>       0.00218659 </v>
   <v>       0.00218659 </v>
   <v>       0.00218659 </v>
   <v>       0.00109329 </v>
   <v>       0.00109329 </v>
   <v>       0.00218659 </v>
   <v>       0.00109329 </v>
   <v>       0.00054665 </v>
   <v>       0.00109329 </v>
   <v>       0.00218659 </v>
   <v>       0.00218659 </v>
   <v>       0.00218659 </v>
   <v>       0.00109329 </v>
   <v>       0.00109329 </v>
   <v>       0.00218659 </v>
   <v>       0.00218659 </v>
   <v>       0.00218659 </v>
   <v>       0.00218659 </v>
   <v>       0.00218659 </v>
   <v>       0.00109329 </v>
   <v>       0.00109329 </v>
   <v>       0.00218659 </v>
   <v>       0.00218659 </v>
   <v>       0.00218659 </v>
   <v>       0.00109329 </v>
   <v>       0.00109329 </v>
   <v>       0.00218659 </v>
   <v>       0.00109329 </v>
   <v>       0.00054665 </v>
   <v>       0.00109329 </v>
   <v>       0.00218659 </v>
   <v>       0.00109329 </v>
   <v>       0.00109329 </v>
   <v>       0.00218659 </v>
   <v>       0.00109329 </v>
   <v>       0.00054665 </v>
   <v>       0.00027332 </v>
  </varray>
  <varray name="tetrahedronlist"  type="int" >
   <v type="int" >       48        2        3       17       42 </v>
   <v type="int" >       48       17       41       42      212 </v>
   <v type="int" >       24       41       41       42      212 </v>
   <v type="int" >       48        3       17       41       42 </v>
   <v type="int" >       48       41       67      212      213 </v>
   <v type="int" >       48       40       41       67      213 </v>
   <v type="int" >       24       41       41       67      212 </v>
   <v type="int" >       48       40       66      213      214 </v>
   <v type="int" >       48       39       40       66      214 </v>
   <v type="int" >       48       40       66       67      213 </v>
   <v type="int" >       48       39       65      214      215 </v>
   <v type="int" >       48       38       39       65      215 </v>
   <v type="int" >       48       39       65       66      214 </v>
   <v type="int" >       48       38       64      215      216 </v>
   <v type="int" >       48       37       38       64      216 </v>
   <v type="int" >       48       38       64       65      215 </v>
   <v type="int" >       48       37       63      216      217 </v>
   <v type="int" >       48       36       37       63      217 </v>
   <v type="int" >       48       37       63       64      216 </v>
   <v type="int" >       48       36       62      217      218 </v>
   <v type="int" >       48       35       36       62      218 </v>
   <v type="int" >       48       36       62       63      217 </v>
   <v type="int" >       48       35       61      218      219 </v>
   <v type="int" >       48       34       35       61      219 </v>
   <v type="int" >       48       35       61       62      218 </v>
   <v type="int" >       48       34       60      219      220 </v>
   <v type="int" >       48       33       34       60      220 </v>
   <v type="int" >       48       34       60       61      219 </v>
   <v type="int" >       48       33       59      220      221 </v>
   <v type="int" >       48       32       33       59      221 </v>
   <v type="int" >       48       33       59       60      220 </v>
   <v type="int" >       48       32       58      221      222 </v>
   <v type="int" >       48       31       32       58      222 </v>
   <v type="int" >       48       32       58       59      221 </v>
   <v type="int" >       48       31       57      222      223 </v>
   <v type="int" >       48       30       31       57      223 </v>
   <v type="int" >       48       31       57       58      222 </v>
   <v type="int" >       48       30       56      223      224 </v>
   <v type="int" >       48       29       30       56      224 </v>
   <v type="int" >       48       30       56       57      223 </v>
   <v type="int" >       48       29       55      223      224 </v>
   <v type="int" >       48       28       29       55      223 </v>
   <v type="int" >       48       29       55       56      224 </v>
   <v type="int" >       48       28       54      222      223 </v>
   <v type="int" >       48       27       28       54      222 </v>
   <v type="int" >       48       28       54       55      223 </v>
   <v type="int" >       48       27       53      221      222 </v>
   <v type="int" >       48       26       27       53      221 </v>
   <v type="int" >       48       27       53       54      222 </v>
   <v type="int" >       48       26       52      220      221 </v>
   <v type="int" >       48       25       26       52      220 </v>
   <v type="int" >       48       26       52       53      221 </v>
   <v type="int" >       48       25       51      219      220 </v>
   <v type="int" >       48       24       25       51      219 </v>
   <v type="int" >       48       25       51       52      220 </v>
   <v type="int" >       48       24       50      218      219 </v>
   <v type="int" >       48       23       24       50      218 </v>
   <v type="int" >       48       24       50       51      219 </v>
   <v type="int" >       48       23       49      217      218 </v>
   <v type="int" >       48       22       23       49      217 </v>
   <v type="int" >       48       23       49       50      218 </v>
   <v type="int" >       48       22       48      216      217 </v>
   <v type="int" >       48       21       22       48      216 </v>
   <v type="int" >       48       22       48       49      217 </v>
   <v type="int" >       48       21       47      215      216 </v>
   <v type="int" >       48       20       21       47      215 </v>
   <v type="int" >       48       21       47       48      216 </v>
   <v type="int" >       48       20       46      214      215 </v>
   <v type="int" >       48       19       20       46      214 </v>
   <v type="int" >       48       20       46       47      215 </v>
   <v type="int" >       48       19       45      213      214 </v>
   <v type="int" >       48       18       19       45      213 </v>
   <v type="int" >       48       19       45       46      214 </v>
   <v type="int" >       48       18       44      212      213 </v>
   <v type="int" >       48       17       18       44      212 </v>
   <v type="int" >       48       18       44       45      213 </v>
   <v type="int" >       24       17       17       43      212 </v>
   <v type="int" >       24       16       17       17       43 </v>
   <v type="int" >       48       17       43       44      212 </v>
   <v type="int" >       24       16       17       17       42 </v>
   <v type="int" >       48        2       16       17       42 </v>
   <v type="int" >       48       17       18       41      212 </v>
   <v type="int" >       48        3       17       18       41 </v>
   <v type="int" >       48       44      212      213      225 </v>
   <v type="int" >       24      212      213      213      225 </v>
   <v type="int" >       24       67      212      213      213 </v>
   <v type="int" >       48       18       41      212      213 </v>
   <v type="int" >       48      213      225      226      247 </v>
   <v type="int" >       48      213      214      226      247 </v>
   <v type="int" >       48       66      213      214      247 </v>
   <v type="int" >       24      213      213      225      247 </v>
   <v type="int" >       24       67      213      213      247 </v>
   <v type="int" >       48       66       67      213      247 </v>
   <v type="int" >       48      214      226      227      246 </v>
   <v type="int" >       48      214      215      227      246 </v>
   <v type="int" >       48       65      214      215      246 </v>
   <v type="int" >       48      214      226      246      247 </v>
   <v type="int" >       48       66      214      246      247 </v>
   <v type="int" >       48       65       66      214      246 </v>
   <v type="int" >       48      215      227      228      245 </v>
   <v type="int" >       48      215      216      228      245 </v>
   <v type="int" >       48       64      215      216      245 </v>
   <v type="int" >       48      215      227      245      246 </v>
   <v type="int" >       48       65      215      245      246 </v>
   <v type="int" >       48       64       65      215      245 </v>
   <v type="int" >       48      216      228      229      244 </v>
   <v type="int" >       48      216      217      229      244 </v>
   <v type="int" >       48       63      216      217      244 </v>
   <v type="int" >       48      216      228      244      245 </v>
   <v type="int" >       48       64      216      244      245 </v>
   <v type="int" >       48       63       64      216      244 </v>
   <v type="int" >       48      217      229      230      243 </v>
   <v type="int" >       48      217      218      230      243 </v>
   <v type="int" >       48       62      217      218      243 </v>
   <v type="int" >       48      217      229      243      244 </v>
   <v type="int" >       48       63      217      243      244 </v>
   <v type="int" >       48       62       63      217      243 </v>
   <v type="int" >       48      218      230      231      242 </v>
   <v type="int" >       48      218      219      231      242 </v>
   <v type="int" >       48       61      218      219      242 </v>
   <v type="int" >       48      218      230      242      243 </v>
   <v type="int" >       48       62      218      242      243 </v>
   <v type="int" >       48       61       62      218      242 </v>
   <v type="int" >       48      219      231      232      241 </v>
   <v type="int" >       48      219      220      232      241 </v>
   <v type="int" >       48       60      219      220      241 </v>
   <v type="int" >       48      219      231      241      242 </v>
   <v type="int" >       48       61      219      241      242 </v>
   <v type="int" >       48       60       61      219      241 </v>
   <v type="int" >       48      220      232      233      240 </v>
   <v type="int" >       48      220      221      233      240 </v>
   <v type="int" >       48       59      220      221      240 </v>
   <v type="int" >       48      220      232      240      241 </v>
   <v type="int" >       48       60      220      240      241 </v>
   <v type="int" >       48       59       60      220      240 </v>
   <v type="int" >       48      221      233      234      239 </v>
   <v type="int" >       48      221      222      234      239 </v>
   <v type="int" >       48       58      221      222      239 </v>
   <v type="int" >       48      221      233      239      240 </v>
   <v type="int" >       48       59      221      239      240 </v>
   <v type="int" >       48       58       59      221      239 </v>
   <v type="int" >       48      222      234      235      238 </v>
   <v type="int" >       48      222      223      235      238 </v>
   <v type="int" >       48       57      222      223      238 </v>
   <v type="int" >       48      222      234      238      239 </v>
   <v type="int" >       48       58      222      238      239 </v>
   <v type="int" >       48       57       58      222      238 </v>
   <v type="int" >       48      223      235      236      237 </v>
   <v type="int" >       48      223      224      236      237 </v>
   <v type="int" >       48       56      223      224      237 </v>
   <v type="int" >       48      223      235      237      238 </v>
   <v type="int" >       48       57      223      237      238 </v>
   <v type="int" >       48       56       57      223      237 </v>
   <v type="int" >       48      224      236      236      237 </v>
   <v type="int" >       48       55      223      224      236 </v>
   <v type="int" >       48       56      224      236      237 </v>
   <v type="int" >       48       55       56      224      236 </v>
   <v type="int" >       48       54      222      223      235 </v>
   <v type="int" >       48       55      223      235      236 </v>
   <v type="int" >       48       54       55      223      235 </v>
   <v type="int" >       48       53      221      222      234 </v>
   <v type="int" >       48       54      222      234      235 </v>
   <v type="int" >       48       53       54      222      234 </v>
   <v type="int" >       48       52      220      221      233 </v>
   <v type="int" >       48       53      221      233      234 </v>
   <v type="int" >       48       52       53      221      233 </v>
   <v type="int" >       48       51      219      220      232 </v>
   <v type="int" >       48       52      220      232      233 </v>
   <v type="int" >       48       51       52      220      232 </v>
   <v type="int" >       48       50      218      219      231 </v>
   <v type="int" >       48       51      219      231      232 </v>
   <v type="int" >       48       50       51      219      231 </v>
   <v type="int" >       48       49      217      218      230 </v>
   <v type="int" >       48       50      218      230      231 </v>
   <v type="int" >       48       49       50      218      230 </v>
   <v type="int" >       48       48      216      217      229 </v>
   <v type="int" >       48       49      217      229      230 </v>
   <v type="int" >       48       48       49      217      229 </v>
   <v type="int" >       48       47      215      216      228 </v>
   <v type="int" >       48       48      216      228      229 </v>
   <v type="int" >       48       47       48      216      228 </v>
   <v type="int" >       48       46      214      215      227 </v>
   <v type="int" >       48       47      215      227      228 </v>
   <v type="int" >       48       46       47      215      227 </v>
   <v type="int" >       48       45      213      214      226 </v>
   <v type="int" >       48       46      214      226      227 </v>
   <v type="int" >       48       45       46      214      226 </v>
   <v type="int" >       48       45      213      225      226 </v>
   <v type="int" >       48       44       45      213      225 </v>
   <v type="int" >       24       44       44      212      225 </v>
   <v type="int" >       24       43       44       44      212 </v>
   <v type="int" >       24       17       17       42      212 </v>
   <v type="int" >       48       44       45       69      225 </v>
   <v type="int" >       48       69      225      226      248 </v>
   <v type="int" >       24      225      226      226      248 </v>
   <v type="int" >       24      225      226      226      247 </v>
   <v type="int" >       48       45       69      225      226 </v>
   <v type="int" >       48      226      248      249      369 </v>
   <v type="int" >       48      226      227      249      369 </v>
   <v type="int" >       48      226      227      246      369 </v>
   <v type="int" >       24      226      226      248      369 </v>
   <v type="int" >       24      226      226      247      369 </v>
   <v type="int" >       48      226      246      247      369 </v>
   <v type="int" >       48      227      249      250      370 </v>
   <v type="int" >       48      227      228      250      370 </v>
   <v type="int" >       48      227      228      245      370 </v>
   <v type="int" >       48      227      249      369      370 </v>
   <v type="int" >       48      227      246      369      370 </v>
   <v type="int" >       48      227      245      246      370 </v>
   <v type="int" >       48      228      250      251      371 </v>
   <v type="int" >       48      228      229      251      371 </v>
   <v type="int" >       48      228      229      244      371 </v>
   <v type="int" >       48      228      250      370      371 </v>
   <v type="int" >       48      228      245      370      371 </v>
   <v type="int" >       48      228      244      245      371 </v>
   <v type="int" >       48      229      251      252      372 </v>
   <v type="int" >       48      229      230      252      372 </v>
   <v type="int" >       48      229      230      243      372 </v>
   <v type="int" >       48      229      251      371      372 </v>
   <v type="int" >       48      229      244      371      372 </v>
   <v type="int" >       48      229      243      244      372 </v>
   <v type="int" >       48      230      252      253      373 </v>
   <v type="int" >       48      230      231      253      373 </v>
   <v type="int" >       48      230      231      242      373 </v>
   <v type="int" >       48      230      252      372      373 </v>
   <v type="int" >       48      230      243      372      373 </v>
   <v type="int" >       48      230      242      243      373 </v>
   <v type="int" >       48      231      253      254      374 </v>
   <v type="int" >       48      231      232      254      374 </v>
   <v type="int" >       48      231      232      241      374 </v>
   <v type="int" >       48      231      253      373      374 </v>
   <v type="int" >       48      231      242      373      374 </v>
   <v type="int" >       48      231      241      242      374 </v>
   <v type="int" >       48      232      254      255      375 </v>
   <v type="int" >       48      232      233      255      375 </v>
   <v type="int" >       48      232      233      240      375 </v>
   <v type="int" >       48      232      254      374      375 </v>
   <v type="int" >       48      232      241      374      375 </v>
   <v type="int" >       48      232      240      241      375 </v>
   <v type="int" >       48      233      255      256      376 </v>
   <v type="int" >       48      233      234      256      376 </v>
   <v type="int" >       48      233      234      239      376 </v>
   <v type="int" >       48      233      255      375      376 </v>
   <v type="int" >       48      233      240      375      376 </v>
   <v type="int" >       48      233      239      240      376 </v>
   <v type="int" >       48      234      256      257      377 </v>
   <v type="int" >       48      234      235      257      377 </v>
   <v type="int" >       48      234      235      238      377 </v>
   <v type="int" >       48      234      256      376      377 </v>
   <v type="int" >       48      234      239      376      377 </v>
   <v type="int" >       48      234      238      239      377 </v>
   <v type="int" >       48      235      257      258      378 </v>
   <v type="int" >       48      235      236      258      378 </v>
   <v type="int" >       48      235      236      237      378 </v>
   <v type="int" >       48      235      257      377      378 </v>
   <v type="int" >       48      235      238      377      378 </v>
   <v type="int" >       48      235      237      238      378 </v>
   <v type="int" >       48      236      258      259      379 </v>
   <v type="int" >       48      236      237      259      379 </v>
   <v type="int" >       48      236      236      237      379 </v>
   <v type="int" >       48      236      258      378      379 </v>
   <v type="int" >       48      236      237      378      379 </v>
   <v type="int" >       48      237      259      260      378 </v>
   <v type="int" >       48      237      238      260      378 </v>
   <v type="int" >       48      237      259      378      379 </v>
   <v type="int" >       48      238      260      261      377 </v>
   <v type="int" >       48      238      239      261      377 </v>
   <v type="int" >       48      238      260      377      378 </v>
   <v type="int" >       48      239      261      262      376 </v>
   <v type="int" >       48      239      240      262      376 </v>
   <v type="int" >       48      239      261      376      377 </v>
   <v type="int" >       48      240      262      263      375 </v>
   <v type="int" >       48      240      241      263      375 </v>
   <v type="int" >       48      240      262      375      376 </v>
   <v type="int" >       48      241      263      264      374 </v>
   <v type="int" >       48      241      242      264      374 </v>
   <v type="int" >       48      241      263      374      375 </v>
   <v type="int" >       48      242      264      265      373 </v>
   <v type="int" >       48      242      243      265      373 </v>
   <v type="int" >       48      242      264      373      374 </v>
   <v type="int" >       48      243      265      266      372 </v>
   <v type="int" >       48      243      244      266      372 </v>
   <v type="int" >       48      243      265      372      373 </v>
   <v type="int" >       48      244      266      267      371 </v>
   <v type="int" >       48      244      245      267      371 </v>
   <v type="int" >       48      244      266      371      372 </v>
   <v type="int" >       48      245      267      268      370 </v>
   <v type="int" >       48      245      246      268      370 </v>
   <v type="int" >       48      245      267      370      371 </v>
   <v type="int" >       24      246      246      268      369 </v>
   <v type="int" >       24      246      246      247      369 </v>
   <v type="int" >       48      246      268      369      370 </v>
   <v type="int" >       48       18       19       40      213 </v>
   <v type="int" >       48       18       40       41      213 </v>
   <v type="int" >       48       69       70       92      248 </v>
   <v type="int" >       48       69       70      226      248 </v>
[...]
       <r>    8.1157    0.3481 </r>
       <r>    9.5505    0.0000 </r>
       <r>   11.4162    0.0000 </r>
       <r>   22.8706    0.0000 </r>
      </set>
      <set comment="kpoint 608">
       <r>    4.3912    1.0000 </r>
       <r>    8.6247   -0.0424 </r>
       <r>    9.3353    0.0000 </r>
       <r>   10.2879    0.0000 </r>
       <r>   20.5213    0.0000 </r>
      </set>
      <set comment="kpoint 609">
       <r>    5.1386    1.0000 </r>
       <r>    7.9629    0.6086 </r>
       <r>    8.9706    0.0000 </r>
       <r>   10.0338    0.0000 </r>
       <r>   21.0991    0.0000 </r>
      </set>
      <set comment="kpoint 610">
       <r>    5.9172    1.0000 </r>
       <r>    7.1234    1.0001 </r>
       <r>    8.7005    0.0000 </r>
       <r>   10.0769    0.0000 </r>
       <r>   21.4960    0.0000 </r>
      </set>
      <set comment="kpoint 611">
       <r>    6.2430    1.0000 </r>
       <r>    6.7051    1.0000 </r>
       <r>    8.5435    0.0000 </r>
       <r>   10.2852    0.0000 </r>
       <r>   21.8464    0.0000 </r>
      </set>
      <set comment="kpoint 612">
       <r>    5.4295    1.0000 </r>
       <r>    7.2682    1.0000 </r>
       <r>    8.6853    0.0000 </r>
       <r>   10.5993    0.0000 </r>
       <r>   22.2039    0.0000 </r>
      </set>
      <set comment="kpoint 613">
       <r>    5.4064    1.0000 </r>
       <r>    8.1637    0.2407 </r>
       <r>    8.4974    0.0000 </r>
       <r>   10.0777    0.0000 </r>
       <r>   20.3985    0.0000 </r>
      </set>
      <set comment="kpoint 614">
       <r>    6.0931    1.0000 </r>
       <r>    7.7627    1.0059 </r>
       <r>    8.0269    0.0179 </r>
       <r>    9.8938    0.0000 </r>
       <r>   21.0191    0.0000 </r>
      </set>
      <set comment="kpoint 615">
       <r>    6.5910    1.0000 </r>
       <r>    7.0475    1.0000 </r>
       <r>    8.0018    0.0214 </r>
       <r>   10.0131    0.0000 </r>
       <r>   21.4577    0.0000 </r>
      </set>
      <set comment="kpoint 616">
       <r>    6.0836    1.0000 </r>
       <r>    7.4206    1.0229 </r>
       <r>    8.4551   -0.0519 </r>
       <r>   10.0214    0.0000 </r>
       <r>   20.3579    0.0000 </r>
      </set>
      <set comment="kpoint 617">
       <r>    4.8686    1.0000 </r>
       <r>    7.9038    0.7659 </r>
       <r>    9.2275    0.0000 </r>
       <r>   10.1481    0.0000 </r>
       <r>   22.1589    0.0000 </r>
      </set>
      <set comment="kpoint 618">
       <r>    5.6541    1.0000 </r>
       <r>    7.2902    1.0001 </r>
       <r>    9.0134    0.0000 </r>
       <r>    9.8200    0.0000 </r>
       <r>   22.7312    0.0000 </r>
      </set>
      <set comment="kpoint 619">
       <r>    6.3847    1.0000 </r>
       <r>    6.5766    1.0000 </r>
       <r>    9.0039    0.0000 </r>
       <r>    9.6889    0.0000 </r>
       <r>   22.9665    0.0000 </r>
      </set>
      <set comment="kpoint 620">
       <r>    5.8773    1.0000 </r>
       <r>    7.7767    1.0232 </r>
       <r>    8.5243   -0.0190 </r>
       <r>    9.4761    0.0000 </r>
       <r>   22.0384    0.0000 </r>
      </set>
      <set comment="kpoint 621">
       <r>    6.5997    1.0000 </r>
       <r>    7.1972    1.0000 </r>
       <r>    8.3291   -0.0191 </r>
       <r>    9.3226    0.0000 </r>
       <r>   22.6676    0.0000 </r>
      </set>
      <set comment="kpoint 622">
       <r>    6.4293    1.0000 </r>
       <r>    7.1412    1.0000 </r>
       <r>    8.4472    0.0000 </r>
       <r>    9.4720    0.0000 </r>
       <r>   23.0761    0.0000 </r>
      </set>
      <set comment="kpoint 623">
       <r>    6.5487    1.0000 </r>
       <r>    7.7343    1.0000 </r>
       <r>    7.8451    0.3157 </r>
       <r>    9.3615    0.0000 </r>
       <r>   21.9980    0.0000 </r>
      </set>
      <set comment="kpoint 624">
       <r>    7.0988    1.0000 </r>
       <r>    7.0988    1.0000 </r>
       <r>    8.1177    0.0059 </r>
       <r>    9.0097    0.0000 </r>
       <r>   23.7091    0.0000 </r>
      </set>
     </set>
    </set>
   </array>
  </eigenvalues>
  <separator name="orbital magnetization" >
   <v name="MAGDIPOLOUT">      0.00000000      0.00000000      0.00000000</v>
  </separator>
  <dos>
   <i name="efermi">      7.95654991 </i>
   <total>
    <array>
     <dimension dim="1">gridpoints</dimension>
     <dimension dim="2">spin</dimension>
     <field>energy</field>
     <field>total</field>
     <field>integrated</field>
     <set>
      <set comment="spin 1">
       <r>    -5.1554     0.0000     0.0000 </r>
       <r>    -5.0521     0.0000     0.0000 </r>
       <r>    -4.9489     0.0000     0.0000 </r>
       <r>    -4.8457     0.0000     0.0000 </r>
       <r>    -4.7425     0.0000     0.0000 </r>
       <r>    -4.6393     0.0000     0.0000 </r>
       <r>    -4.5361     0.0000     0.0000 </r>
       <r>    -4.4329     0.0000     0.0000 </r>
       <r>    -4.3296     0.0000     0.0000 </r>
       <r>    -4.2264     0.0000     0.0000 </r>
       <r>    -4.1232     0.0000     0.0000 </r>
       <r>    -4.0200     0.0000     0.0000 </r>
       <r>    -3.9168     0.0000     0.0000 </r>
       <r>    -3.8136     0.0000     0.0000 </r>
       <r>    -3.7103     0.0000     0.0000 </r>
       <r>    -3.6071     0.0000     0.0000 </r>
       <r>    -3.5039     0.0000     0.0000 </r>
       <r>    -3.4007     0.0000     0.0000 </r>
       <r>    -3.2975     0.0000     0.0000 </r>
       <r>    -3.1943     0.0000     0.0000 </r>
       <r>    -3.0911     0.0289     0.0009 </r>
       <r>    -2.9878     0.0452     0.0048 </r>
       <r>    -2.8846     0.0587     0.0102 </r>
       <r>    -2.7814     0.0709     0.0169 </r>
       <r>    -2.6782     0.0789     0.0246 </r>
       <r>    -2.5750     0.0886     0.0332 </r>
       <r>    -2.4718     0.0951     0.0427 </r>
       <r>    -2.3685     0.1027     0.0529 </r>
       <r>    -2.2653     0.1095     0.0639 </r>
       <r>    -2.1621     0.1154     0.0755 </r>
       <r>    -2.0589     0.1220     0.0877 </r>
       <r>    -1.9557     0.1276     0.1007 </r>
       <r>    -1.8525     0.1329     0.1141 </r>
       <r>    -1.7493     0.1385     0.1281 </r>
       <r>    -1.6460     0.1439     0.1427 </r>
       <r>    -1.5428     0.1484     0.1578 </r>
       <r>    -1.4396     0.1533     0.1733 </r>
       <r>    -1.3364     0.1584     0.1894 </r>
       <r>    -1.2332     0.1630     0.2060 </r>
       <r>    -1.1300     0.1671     0.2231 </r>
       <r>    -1.0267     0.1715     0.2405 </r>
       <r>    -0.9235     0.1761     0.2585 </r>
       <r>    -0.8203     0.1804     0.2769 </r>
       <r>    -0.7171     0.1842     0.2957 </r>
       <r>    -0.6139     0.1882     0.3149 </r>
       <r>    -0.5107     0.1923     0.3345 </r>
       <r>    -0.4075     0.1966     0.3546 </r>
       <r>    -0.3042     0.2002     0.3751 </r>
       <r>    -0.2010     0.2038     0.3960 </r>
       <r>    -0.0978     0.2075     0.4172 </r>
       <r>     0.0054     0.2113     0.4388 </r>
       <r>     0.1086     0.2153     0.4608 </r>
       <r>     0.2118     0.2187     0.4832 </r>
       <r>     0.3151     0.2220     0.5059 </r>
       <r>     0.4183     0.2255     0.5290 </r>
       <r>     0.5215     0.2290     0.5525 </r>
       <r>     0.6247     0.2327     0.5763 </r>
       <r>     0.7279     0.2362     0.6005 </r>
       <r>     0.8311     0.2393     0.6251 </r>
       <r>     0.9343     0.2425     0.6499 </r>
       <r>     1.0376     0.2458     0.6751 </r>
       <r>     1.1408     0.2492     0.7007 </r>
       <r>     1.2440     0.2526     0.7266 </r>
       <r>     1.3472     0.2558     0.7528 </r>
       <r>     1.4504     0.2588     0.7794 </r>
       <r>     1.5536     0.2619     0.8063 </r>
       <r>     1.6569     0.2651     0.8334 </r>
       <r>     1.7601     0.2683     0.8610 </r>
       <r>     1.8633     0.2716     0.8888 </r>
       <r>     1.9665     0.2748     0.9170 </r>
       <r>     2.0697     0.2777     0.9455 </r>
       <r>     2.1729     0.2807     0.9744 </r>
       <r>     2.2761     0.2837     1.0035 </r>
       <r>     2.3794     0.2868     1.0329 </r>
       <r>     2.4826     0.2900     1.0627 </r>
       <r>     2.5858     0.2933     1.0928 </r>
       <r>     2.6890     0.2964     1.1232 </r>
       <r>     2.7922     0.2996     1.1540 </r>
       <r>     2.8954     0.3032     1.1851 </r>
       <r>     2.9987     0.3083     1.2166 </r>
       <r>     3.1019     0.3175     1.2489 </r>
       <r>     3.2051     0.3297     1.2824 </r>
       <r>     3.3083     0.3320     1.3166 </r>
       <r>     3.4115     0.3195     1.3503 </r>
       <r>     3.5147     0.3206     1.3832 </r>
       <r>     3.6179     0.3074     1.4160 </r>
       <r>     3.7212     0.2991     1.4474 </r>
       <r>     3.8244     0.3178     1.4791 </r>
       <r>     3.9276     0.3333     1.5127 </r>
       <r>     4.0308     0.3317     1.5472 </r>
       <r>     4.1340     0.3319     1.5815 </r>
       <r>     4.2372     0.3394     1.6157 </r>
       <r>     4.3405     0.3465     1.6512 </r>
       <r>     4.4437     0.3571     1.6879 </r>
       <r>     4.5469     0.3469     1.7243 </r>
       <r>     4.6501     0.3511     1.7599 </r>
       <r>     4.7533     0.3704     1.7974 </r>
       <r>     4.8565     0.3738     1.8358 </r>
       <r>     4.9597     0.3882     1.8750 </r>
       <r>     5.0630     0.3919     1.9158 </r>
       <r>     5.1662     0.3905     1.9560 </r>
       <r>     5.2694     0.3823     1.9961 </r>
       <r>     5.3726     0.3844     2.0352 </r>
       <r>     5.4758     0.3745     2.0745 </r>
       <r>     5.5790     0.3625     2.1122 </r>
       <r>     5.6823     0.3705     2.1498 </r>
       <r>     5.7855     0.3734     2.1879 </r>
       <r>     5.8887     0.3646     2.2261 </r>
       <r>     5.9919     0.3432     2.2628 </r>
       <r>     6.0951     0.3596     2.2977 </r>
       <r>     6.1983     0.3325     2.3328 </r>
       <r>     6.3015     0.3253     2.3665 </r>
       <r>     6.4048     0.3403     2.4005 </r>
       <r>     6.5080     0.3678     2.4372 </r>
       <r>     6.6112     0.3813     2.4764 </r>
       <r>     6.7144     0.3760     2.5150 </r>
       <r>     6.8176     0.3933     2.5546 </r>
       <r>     6.9208     0.3974     2.5954 </r>
       <r>     7.0241     0.3974     2.6361 </r>
       <r>     7.1273     0.4229     2.6785 </r>
       <r>     7.2305     0.3973     2.7219 </r>
       <r>     7.3337     0.3876     2.7624 </r>
       <r>     7.4369     0.3913     2.8024 </r>
       <r>     7.5401     0.3640     2.8410 </r>
       <r>     7.6433     0.3660     2.8785 </r>
       <r>     7.7466     0.3939     2.9177 </r>
       <r>     7.8498     0.3899     2.9583 </r>
       <r>     7.9530     0.3950     2.9986 </r>
       <r>     8.0562     0.4171     3.0414 </r>
       <r>     8.1594     0.4064     3.0839 </r>
       <r>     8.2626     0.4187     3.1264 </r>
       <r>     8.3658     0.4244     3.1701 </r>
       <r>     8.4691     0.4236     3.2137 </r>
       <r>     8.5723     0.4284     3.2579 </r>
       <r>     8.6755     0.4278     3.3020 </r>
       <r>     8.7787     0.4305     3.3464 </r>
       <r>     8.8819     0.4272     3.3907 </r>
       <r>     8.9851     0.4216     3.4344 </r>
       <r>     9.0884     0.4187     3.4778 </r>
       <r>     9.1916     0.4180     3.5210 </r>
       <r>     9.2948     0.4278     3.5645 </r>
       <r>     9.3980     0.4386     3.6094 </r>
       <r>     9.5012     0.4377     3.6546 </r>
       <r>     9.6044     0.4388     3.6997 </r>
       <r>     9.7076     0.4406     3.7451 </r>
       <r>     9.8109     0.4476     3.7909 </r>
       <r>     9.9141     0.4524     3.8374 </r>
       <r>    10.0173     0.4489     3.8840 </r>
       <r>    10.1205     0.4503     3.9304 </r>
       <r>    10.2237     0.4525     3.9769 </r>
       <r>    10.3269     0.4553     4.0239 </r>
       <r>    10.4302     0.4552     4.0708 </r>
       <r>    10.5334     0.4586     4.1179 </r>
       <r>    10.6366     0.4658     4.1656 </r>
       <r>    10.7398     0.4684     4.2138 </r>
       <r>    10.8430     0.4690     4.2621 </r>
       <r>    10.9462     0.4725     4.3107 </r>
       <r>    11.0494     0.4753     4.3597 </r>
       <r>    11.1527     0.4752     4.4087 </r>
       <r>    11.2559     0.4768     4.4579 </r>
       <r>    11.3591     0.4786     4.5071 </r>
       <r>    11.4623     0.4831     4.5567 </r>
       <r>    11.5655     0.4890     4.6069 </r>
       <r>    11.6687     0.4904     4.6575 </r>
       <r>    11.7720     0.4912     4.7081 </r>
       <r>    11.8752     0.4923     4.7589 </r>
       <r>    11.9784     0.4915     4.8096 </r>
       <r>    12.0816     0.4984     4.8607 </r>
       <r>    12.1848     0.5042     4.9125 </r>
       <r>    12.2880     0.5103     4.9648 </r>
       <r>    12.3912     0.5158     5.0178 </r>
       <r>    12.4945     0.5153     5.0710 </r>
       <r>    12.5977     0.5182     5.1243 </r>
       <r>    12.7009     0.5166     5.1778 </r>
       <r>    12.8041     0.5214     5.2312 </r>
       <r>    12.9073     0.5271     5.2853 </r>
       <r>    13.0105     0.5308     5.3399 </r>
       <r>    13.1138     0.5430     5.3952 </r>
       <r>    13.2170     0.5588     5.4522 </r>
       <r>    13.3202     0.5747     5.5105 </r>
       <r>    13.4234     0.5908     5.5707 </r>
       <r>    13.5266     0.6259     5.6328 </r>
       <r>    13.6298     0.5999     5.6955 </r>
       <r>    13.7330     0.5906     5.7567 </r>
       <r>    13.8363     0.5808     5.8174 </r>
       <r>    13.9395     0.5782     5.8772 </r>
       <r>    14.0427     0.5729     5.9367 </r>
       <r>    14.1459     0.5628     5.9953 </r>
       <r>    14.2491     0.5564     6.0530 </r>
       <r>    14.3523     0.5542     6.1104 </r>
       <r>    14.4556     0.5487     6.1673 </r>
       <r>    14.5588     0.5442     6.2237 </r>
       <r>    14.6620     0.5405     6.2796 </r>
       <r>    14.7652     0.5381     6.3354 </r>
       <r>    14.8684     0.5316     6.3906 </r>
       <r>    14.9716     0.5293     6.4453 </r>
       <r>    15.0748     0.5294     6.5000 </r>
       <r>    15.1781     0.5327     6.5547 </r>
       <r>    15.2813     0.5324     6.6096 </r>
       <r>    15.3845     0.5313     6.6645 </r>
       <r>    15.4877     0.5310     6.7194 </r>
       <r>    15.5909     0.5287     6.7740 </r>
       <r>    15.6941     0.5283     6.8286 </r>
       <r>    15.7974     0.5315     6.8833 </r>
       <r>    15.9006     0.5336     6.9383 </r>
       <r>    16.0038     0.5337     6.9934 </r>
       <r>    16.1070     0.5320     7.0484 </r>
       <r>    16.2102     0.5305     7.1032 </r>
       <r>    16.3134     0.5296     7.1579 </r>
       <r>    16.4166     0.5302     7.2126 </r>
       <r>    16.5199     0.5301     7.2674 </r>
       <r>    16.6231     0.5320     7.3221 </r>
       <r>    16.7263     0.5316     7.3770 </r>
       <r>    16.8295     0.5302     7.4319 </r>
       <r>    16.9327     0.5288     7.4865 </r>
       <r>    17.0359     0.5275     7.5410 </r>
       <r>    17.1392     0.5269     7.5955 </r>
       <r>    17.2424     0.5255     7.6498 </r>
       <r>    17.3456     0.5257     7.7040 </r>
       <r>    17.4488     0.5265     7.7583 </r>
       <r>    17.5520     0.5254     7.8126 </r>
       <r>    17.6552     0.5241     7.8668 </r>
       <r>    17.7584     0.5228     7.9208 </r>
       <r>    17.8617     0.5218     7.9747 </r>
       <r>    17.9649     0.5189     8.0284 </r>
       <r>    18.0681     0.5161     8.0818 </r>
       <r>    18.1713     0.5146     8.1350 </r>
       <r>    18.2745     0.5139     8.1881 </r>
       <r>    18.3777     0.5123     8.2411 </r>
       <r>    18.4810     0.5114     8.2939 </r>
       <r>    18.5842     0.5113     8.3467 </r>
       <r>    18.6874     0.5138     8.3995 </r>
       <r>    18.7906     0.5235     8.4530 </r>
       <r>    18.8938     0.5422     8.5079 </r>
       <r>    18.9970     0.5610     8.5649 </r>
       <r>    19.1002     0.5691     8.6234 </r>
       <r>    19.2035     0.5673     8.6821 </r>
       <r>    19.3067     0.5616     8.7404 </r>
       <r>    19.4099     0.5539     8.7980 </r>
       <r>    19.5131     0.5392     8.8544 </r>
       <r>    19.6163     0.5314     8.9096 </r>
       <r>    19.7195     0.5434     8.9649 </r>
       <r>    19.8228     0.5634     9.0220 </r>
       <r>    19.9260     0.5831     9.0812 </r>
       <r>    20.0292     0.5873     9.1418 </r>
       <r>    20.1324     0.5810     9.2020 </r>
       <r>    20.2356     0.5798     9.2618 </r>
       <r>    20.3388     0.5897     9.3219 </r>
       <r>    20.4420     0.4922     9.3783 </r>
       <r>    20.5453     0.4542     9.4267 </r>
       <r>    20.6485     0.4387     9.4727 </r>
       <r>    20.7517     0.4138     9.5168 </r>
       <r>    20.8549     0.3852     9.5582 </r>
       <r>    20.9581     0.3515     9.5959 </r>
       <r>    21.0613     0.3455     9.6317 </r>
       <r>    21.1646     0.3360     9.6671 </r>
       <r>    21.2678     0.3196     9.7009 </r>
       <r>    21.3710     0.2925     9.7327 </r>
       <r>    21.4742     0.2589     9.7610 </r>
       <r>    21.5774     0.2523     9.7873 </r>
       <r>    21.6806     0.2469     9.8131 </r>
       <r>    21.7838     0.2372     9.8380 </r>
       <r>    21.8871     0.1930     9.8602 </r>
       <r>    21.9903     0.1726     9.8788 </r>
       <r>    22.0935     0.1545     9.8958 </r>
       <r>    22.1967     0.1305     9.9104 </r>
       <r>    22.2999     0.1237     9.9235 </r>
       <r>    22.4031     0.1161     9.9359 </r>
       <r>    22.5064     0.1145     9.9476 </r>
       <r>    22.6096     0.1248     9.9600 </r>
       <r>    22.7128     0.1219     9.9729 </r>
       <r>    22.8160     0.0658     9.9830 </r>
       <r>    22.9192     0.0482     9.9888 </r>
       <r>    23.0224     0.0316     9.9929 </r>
       <r>    23.1256     0.0216     9.9956 </r>
       <r>    23.2289     0.0137     9.9974 </r>
       <r>    23.3321     0.0088     9.9986 </r>
       <r>    23.4353     0.0052     9.9993 </r>
       <r>    23.5385     0.0028     9.9997 </r>
       <r>    23.6417     0.0014     9.9999 </r>
       <r>    23.7449     0.0004    10.0000 </r>
       <r>    23.8482     0.0000    10.0000 </r>
       <r>    23.9514     0.0000    10.0000 </r>
       <r>    24.0546     0.0000    10.0000 </r>
       <r>    24.1578     0.0000    10.0000 </r>
       <r>    24.2610     0.0000    10.0000 </r>
       <r>    24.3642     0.0000    10.0000 </r>
       <r>    24.4674     0.0000    10.0000 </r>
       <r>    24.5707     0.0000    10.0000 </r>
       <r>    24.6739     0.0000    10.0000 </r>
       <r>    24.7771     0.0000    10.0000 </r>
       <r>    24.8803     0.0000    10.0000 </r>
       <r>    24.9835     0.0000    10.0000 </r>
       <r>    25.0867     0.0000    10.0000 </r>
       <r>    25.1900     0.0000    10.0000 </r>
       <r>    25.2932     0.0000    10.0000 </r>
       <r>    25.3964     0.0000    10.0000 </r>
       <r>    25.4996     0.0000    10.0000 </r>
       <r>    25.6028     0.0000    10.0000 </r>
       <r>    25.7060     0.0000    10.0000 </r>
       <r>    25.8092     0.0000    10.0000 </r>
      </set>
     </set>
    </array>
   </total>
  </dos>
 </calculation>
 <structure name="finalpos" >
  <crystal>
   <varray name="basis" >
    <v>       2.86340000       0.00000000       0.00000000 </v>
    <v>       1.43170000       2.47977714       0.00000000 </v>
    <v>       1.43170000       0.82659238       2.33795631 </v>
   </varray>
   <i name="volume">     16.60087823 </i>
   <varray name="rec_basis" >
    <v>       0.34923517      -0.20163102      -0.14257466 </v>
    <v>       0.00000000       0.40326204      -0.14257466 </v>
    <v>       0.00000000       0.00000000       0.42772399 </v>
   </varray>
  </crystal>
  <varray name="positions" >
   <v>       0.00000000       0.00000000       0.00000000 </v>
  </varray>
 </structure>
</modeling>
