<?xml version="1.0" encoding="ISO-8859-1"?>
<modeling>
 <generator>
  <i name="program" type="string">vasp </i>
  <i name="version" type="string">6.4.2  </i>
  <i name="subversion" type="string">20Jul23 (build Oct 18 2023 12:49:41) complex                          parallel </i>
  <i name="platform" type="string">LinuxGNU </i>
  <i name="date" type="string">2025 04 11 </i>
  <i name="time" type="string">07:33:06 </i>
 </generator>
 <incar>
  <i type="string" name="SYSTEM">Al</i>
  <i type="int" name="NSIM">     1</i>
  <i name="ENCUT">    900.00000000</i>
  <i type="int" name="ISMEAR">    -5</i>
  <i type="logical" name="LCHARG"> F  </i>
 </incar>
 <primitive_cell>
  <structure name="primitive_cell" >
   <crystal>
    <varray name="basis" >
     <v>       2.86340000       0.00000000       0.00000000 </v>
     <v>       1.43170000       2.47977714       0.00000000 </v>
     <v>       1.43170000       0.82659238       2.33795631 </v>
    </varray>
    <i name="volume">     16.60087823 </i>
    <varray name="rec_basis" >
     <v>       0.34923517      -0.20163102      -0.14257466 </v>
     <v>       0.00000000       0.40326204      -0.14257466 </v>
     <v>       0.00000000       0.00000000       0.42772399 </v>
    </varray>
   </crystal>
   <varray name="positions" >
    <v>       0.00000000       0.00000000       0.00000000 </v>
   </varray>
  </structure>
  <varray name="primitive_index" >
   <v type="int" >        1 </v>
  </varray>
 </primitive_cell>
 <kpoints>
  <generation param="Gamma">
   <v type="int" name="divisions">       6        6        6 </v>
   <v name="usershift">      0.00000000       0.00000000       0.00000000 </v>
   <v name="genvec1">      0.16666667      -0.00000000      -0.00000000 </v>
   <v name="genvec2">      0.00000000       0.16666667      -0.00000000 </v>
   <v name="genvec3">      0.00000000       0.00000000       0.16666667 </v>
   <v name="shift">      0.00000000       0.00000000       0.00000000 </v>
  </generation>
  <varray name="kpointlist" >
   <v>       0.00000000       0.00000000       0.00000000 </v>
   <v>       0.16666667       0.00000000       0.00000000 </v>
   <v>       0.33333333       0.00000000       0.00000000 </v>
   <v>       0.50000000       0.00000000       0.00000000 </v>
   <v>       0.16666667       0.16666667       0.00000000 </v>
   <v>       0.33333333       0.16666667       0.00000000 </v>
   <v>       0.50000000       0.16666667       0.00000000 </v>
   <v>      -0.33333333       0.16666667       0.00000000 </v>
   <v>      -0.16666667       0.16666667       0.00000000 </v>
   <v>       0.33333333       0.33333333       0.00000000 </v>
   <v>       0.50000000       0.33333333       0.00000000 </v>
   <v>      -0.33333333       0.33333333       0.00000000 </v>
   <v>       0.50000000       0.50000000       0.00000000 </v>
   <v>       0.50000000       0.33333333       0.16666667 </v>
   <v>      -0.33333333       0.33333333       0.16666667 </v>
   <v>      -0.33333333       0.50000000       0.16666667 </v>
  </varray>
  <varray name="weights" >
   <v>       0.00462963 </v>
   <v>       0.03703704 </v>
   <v>       0.03703704 </v>
   <v>       0.01851852 </v>
   <v>       0.02777778 </v>
   <v>       0.11111111 </v>
   <v>       0.11111111 </v>
   <v>       0.11111111 </v>
   <v>       0.05555556 </v>
   <v>       0.02777778 </v>
   <v>       0.11111111 </v>
   <v>       0.05555556 </v>
   <v>       0.01388889 </v>
   <v>       0.11111111 </v>
   <v>       0.11111111 </v>
   <v>       0.05555556 </v>
  </varray>
  <varray name="tetrahedronlist"  type="int" >
   <v type="int" >       48        2        3        6        9 </v>
   <v type="int" >       48        6        8        9       14 </v>
   <v type="int" >       24        8        8        9       14 </v>
   <v type="int" >       48        3        6        8        9 </v>
   <v type="int" >       48        8       12       14       15 </v>
   <v type="int" >       48        7        8       12       15 </v>
   <v type="int" >       24        8        8       12       14 </v>
   <v type="int" >       48        7       11       14       15 </v>
   <v type="int" >       48        6        7       11       14 </v>
   <v type="int" >       48        7       11       12       15 </v>
   <v type="int" >       24        6        6       10       14 </v>
   <v type="int" >       24        5        6        6       10 </v>
   <v type="int" >       48        6       10       11       14 </v>
   <v type="int" >       24        5        6        6        9 </v>
   <v type="int" >       48        2        5        6        9 </v>
   <v type="int" >       48        6        7        8       14 </v>
   <v type="int" >       48        3        6        7        8 </v>
   <v type="int" >       48       11       14       15       16 </v>
   <v type="int" >       24       14       15       15       16 </v>
   <v type="int" >       24       12       14       15       15 </v>
   <v type="int" >       48        7        8       14       15 </v>
   <v type="int" >       24       15       15       16       16 </v>
   <v type="int" >       24       12       15       15       16 </v>
   <v type="int" >       48       11       12       15       16 </v>
   <v type="int" >       24       11       11       14       16 </v>
   <v type="int" >       24       10       11       11       14 </v>
   <v type="int" >       24        6        6        9       14 </v>
   <v type="int" >       24       11       11       12       16 </v>
   <v type="int" >       48        7        7        8       15 </v>
   <v type="int" >       24        2        2        5        9 </v>
   <v type="int" >       48        3        4        7        8 </v>
   <v type="int" >       48        4        7        7        8 </v>
   <v type="int" >       48       11       11       13       16 </v>
   <v type="int" >       24       10       11       11       13 </v>
   <v type="int" >       24        1        2        2        5 </v>
  </varray>
  <i name="volumeweight">      0.00077160 </i>
 </kpoints>
 <parameters>
  <separator name="general" >
   <i type="string" name="SYSTEM">Al</i>
   <i type="logical" name="LCOMPAT"> F  </i>
  </separator>
  <separator name="electronic" >
   <i type="string" name="PREC">normal</i>
   <i name="ENMAX">    900.00000000</i>
   <i name="ENAUG">    291.05200000</i>
   <i name="EDIFF">      0.00010000</i>
   <i type="int" name="IALGO">    38</i>
   <i type="int" name="IWAVPR">    10</i>
   <i type="int" name="NBANDS">     5</i>
   <i type="int" name="NBANDSLOW">    -1</i>
   <i type="int" name="NBANDSHIGH">    -1</i>
   <i name="NELECT">      3.00000000</i>
   <i type="int" name="TURBO">     0</i>
   <i type="int" name="IRESTART">     0</i>
   <i type="int" name="NREBOOT">     0</i>
   <i type="int" name="NMIN">     0</i>
   <i name="EREF">      0.00000000</i>
   <separator name="electronic smearing" >
    <i type="int" name="ISMEAR">    -5</i>
    <i name="SIGMA">      0.20000000</i>
    <i name="KSPACING">      0.50000000</i>
    <i type="logical" name="KGAMMA"> T  </i>
    <i type="logical" name="KBLOWUP"> T  </i>
   </separator>
   <separator name="electronic projectors" >
    <i type="logical" name="LREAL"> F  </i>
    <v name="ROPT">      0.00000000</v>
    <i type="int" name="LMAXPAW">  -100</i>
    <i type="int" name="LMAXMIX">     2</i>
    <i type="logical" name="NLSPLINE"> F  </i>
   </separator>
   <separator name="electronic startup" >
    <i type="int" name="ISTART">     1</i>
    <i type="int" name="ICHARG">     0</i>
    <i type="int" name="INIWAV">     1</i>
   </separator>
   <separator name="electronic spin" >
    <i type="int" name="ISPIN">     1</i>
    <i type="logical" name="LNONCOLLINEAR"> F  </i>
    <v name="MAGMOM">      1.00000000</v>
    <i name="NUPDOWN">     -1.00000000</i>
    <i type="logical" name="LSORBIT"> F  </i>
    <v name="SAXIS">      0.00000000      0.00000000      1.00000000</v>
    <i type="logical" name="LSPIRAL"> F  </i>
    <v name="QSPIRAL">      0.00000000      0.00000000      0.00000000</v>
    <i type="logical" name="LZEROZ"> F  </i>
   </separator>
   <separator name="electronic exchange-correlation" >
    <i type="logical" name="LASPH"> F  </i>
    <i type="logical" name="LMETAGGA"> F  </i>
   </separator>
   <separator name="electronic convergence" >
    <i type="int" name="NELM">    60</i>
    <i type="int" name="NELMDL">     0</i>
    <i type="int" name="NELMIN">     2</i>
    <i name="ENINI">    900.00000000</i>
    <separator name="electronic convergence detail" >
     <i type="logical" name="LDIAG"> T  </i>
     <i type="logical" name="LSUBROT"> F  </i>
     <i name="WEIMIN">      0.00000000</i>
     <i name="EBREAK">      0.00000500</i>
     <i name="DEPER">      0.30000000</i>
     <i type="int" name="NRMM">     4</i>
     <i name="TIME">      0.40000000</i>
    </separator>
   </separator>
   <separator name="electronic mixer" >
    <i name="AMIX">      0.40000000</i>
    <i name="BMIX">      1.00000000</i>
    <i name="AMIN">      0.10000000</i>
    <i name="AMIX_MAG">      1.60000000</i>
    <i name="BMIX_MAG">      1.00000000</i>
    <separator name="electronic mixer details" >
     <i type="int" name="IMIX">     4</i>
     <i type="logical" name="MIXFIRST"> F  </i>
     <i type="int" name="MAXMIX">   -45</i>
     <i name="WC">    100.00000000</i>
     <i type="int" name="INIMIX">     1</i>
     <i type="int" name="MIXPRE">     1</i>
     <i type="int" name="MREMOVE">     5</i>
    </separator>
   </separator>
   <separator name="electronic dipolcorrection" >
    <i type="logical" name="LDIPOL"> F  </i>
    <i type="logical" name="LMONO"> F  </i>
    <i type="int" name="IDIPOL">     0</i>
    <i name="EPSILON">      1.00000000</i>
    <v name="DIPOL">   -100.00000000   -100.00000000   -100.00000000</v>
    <i name="EFIELD">      0.00000000</i>
   </separator>
  </separator>
  <separator name="grids" >
   <i type="int" name="NGX">    24</i>
   <i type="int" name="NGY">    24</i>
   <i type="int" name="NGZ">    24</i>
   <i type="int" name="NGXF">    48</i>
   <i type="int" name="NGYF">    48</i>
   <i type="int" name="NGZF">    48</i>
   <i type="logical" name="ADDGRID"> F  </i>
  </separator>
  <separator name="ionic" >
   <i type="int" name="NSW">     0</i>
   <i type="int" name="IBRION">    -1</i>
   <i type="int" name="MDALGO">     0</i>
   <i type="int" name="ISIF">     2</i>
   <i name="PSTRESS">      0.00000000</i>
   <i name="EDIFFG">      0.00100000</i>
   <i type="int" name="NFREE">     0</i>
   <i name="POTIM">      0.50000000</i>
   <i name="SMASS">     -3.00000000</i>
   <i name="SCALEE">      1.00000000</i>
  </separator>
  <separator name="ionic md" >
   <i name="TEBEG">      0.00010000</i>
   <i name="TEEND">      0.00010000</i>
   <i type="int" name="NBLOCK">     1</i>
   <i type="int" name="KBLOCK">     1</i>
   <i type="int" name="NPACO">   256</i>
   <i name="APACO">     10.00000000</i>
  </separator>
  <separator name="symmetry" >
   <i type="int" name="ISYM">     2</i>
   <i name="SYMPREC">      0.00001000</i>
  </separator>
  <separator name="dos" >
   <i type="int" name="LORBIT">     0</i>
   <v name="RWIGS">     -1.00000000</v>
   <i type="int" name="NEDOS">   301</i>
   <i name="EMIN">     10.00000000</i>
   <i name="EMAX">    -10.00000000</i>
   <i name="EFERMI">      0.00000000</i>
  </separator>
  <separator name="writing" >
   <i type="int" name="NWRITE">     2</i>
   <i type="logical" name="LWAVE"> T  </i>
   <i type="logical" name="LDOWNSAMPLE"> F  </i>
   <i type="logical" name="LCHARG"> F  </i>
   <i type="logical" name="LPARD"> F  </i>
   <i type="logical" name="LVTOT"> F  </i>
   <i type="logical" name="LVHAR"> F  </i>
   <i type="logical" name="LELF"> F  </i>
   <i type="logical" name="LOPTICS"> F  </i>
   <v name="STM">      0.00000000      0.00000000      0.00000000      0.00000000      0.00000000      0.00000000      0.00000000</v>
  </separator>
  <separator name="performance" >
   <i type="int" name="NPAR">     1</i>
   <i type="int" name="NSIM">     1</i>
   <i type="int" name="NBLK">    -1</i>
   <i type="logical" name="LPLANE"> T  </i>
   <i type="logical" name="LSCALAPACK"> T  </i>
   <i type="logical" name="LSCAAWARE"> F  </i>
   <i type="logical" name="LSCALU"> F  </i>
   <i type="logical" name="LASYNC"> F  </i>
   <i type="logical" name="LORBITALREAL"> F  </i>
  </separator>
  <separator name="miscellaneous" >
   <i type="int" name="IDIOT">     3</i>
   <i type="int" name="PHON_NSTRUCT">    -1</i>
   <i type="logical" name="LMUSIC"> F  </i>
   <v name="POMASS">     26.98100000</v>
   <v name="DARWINR">      0.00000000</v>
   <v name="DARWINV">      1.00000000</v>
   <i type="logical" name="LCORR"> T  </i>
  </separator>
  <i type="logical" name="GGA_COMPAT"> T  </i>
  <i type="logical" name="LBERRY"> F  </i>
  <i type="int" name="ICORELEVEL">     0</i>
  <i type="logical" name="LDAU"> F  </i>
  <i type="int" name="I_CONSTRAINED_M">     0</i>
  <separator name="electronic exchange-correlation" >
   <i type="string" name="GGA">--</i>
   <i type="int" name="VOSKOWN">     0</i>
   <i type="logical" name="LHFCALC"> F  </i>
   <i type="string" name="PRECFOCK"></i>
   <i type="logical" name="LSYMGRAD"> F  </i>
   <i type="logical" name="LHFONE"> F  </i>
   <i type="logical" name="LRHFCALC"> F  </i>
   <i type="logical" name="LTHOMAS"> F  </i>
   <i type="logical" name="LMODELHF"> F  </i>
   <i type="logical" name="LFOCKACE"> F  </i>
   <i name="ENCUT4O">     -1.00000000</i>
   <i type="int" name="EXXOEP">     0</i>
   <i type="int" name="FOURORBIT">     0</i>
   <i name="AEXX">      0.00000000</i>
   <i name="HFALPHA">      0.00000000</i>
   <i name="MCALPHA">      0.00000000</i>
   <i name="ALDAX">      1.00000000</i>
   <i name="AGGAX">      1.00000000</i>
   <i name="ALDAC">      1.00000000</i>
   <i name="AGGAC">      1.00000000</i>
   <i type="int" name="NKREDX">     1</i>
   <i type="int" name="NKREDY">     1</i>
   <i type="int" name="NKREDZ">     1</i>
   <i type="logical" name="SHIFTRED"> F  </i>
   <i type="logical" name="ODDONLY"> F  </i>
   <i type="logical" name="EVENONLY"> F  </i>
   <i type="int" name="LMAXFOCK">     0</i>
   <i type="int" name="NMAXFOCKAE">     0</i>
   <i type="logical" name="LFOCKAEDFT"> F  </i>
   <i name="HFSCREEN">      0.00000000</i>
   <i name="HFSCREENC">      0.00000000</i>
   <i type="int" name="NBANDSGWLOW">     0</i>
  </separator>
  <separator name="vdW DFT" >
   <i type="logical" name="LUSE_VDW"> F  </i>
   <i type="int" name="IVDW_NL">     1</i>
   <i type="logical" name="LSPIN_VDW"> F  </i>
   <i name="Zab_VDW">     -0.84910000</i>
   <i name="PARAM1">      0.12340000</i>
   <i name="PARAM2">      1.00000000</i>
   <i name="PARAM3">      0.00000000</i>
  </separator>
  <separator name="model GW" >
   <i type="int" name="MODEL_GW">     0</i>
   <i name="MODEL_EPS0">      9.96052694</i>
   <i name="MODEL_ALPHA">      1.00000000</i>
  </separator>
  <separator name="linear response parameters" >
   <i type="logical" name="LEPSILON"> F  </i>
   <i type="logical" name="LRPA"> F  </i>
   <i type="logical" name="LNABLA"> F  </i>
   <i type="logical" name="LVEL"> F  </i>
   <i name="CSHIFT">      0.10000000</i>
   <i name="OMEGAMAX">     -1.00000000</i>
   <i name="DEG_THRESHOLD">      0.00200000</i>
   <i name="RTIME">     -0.10000000</i>
   <i name="WPLASMAI">      0.00000000</i>
   <v name="DFIELD">      0.00000000      0.00000000      0.00000000</v>
   <v name="WPLASMA">      0.00000000      0.00000000      0.00000000      0.00000000      0.00000000      0.00000000      0.00000000      0.00000000      0.00000000</v>
  </separator>
  <separator name="orbital magnetization" >
   <i type="logical" name="NUCIND"> F  </i>
   <v name="MAGPOS">      0.00000000      0.00000000      0.00000000</v>
   <i type="logical" name="LNICSALL"> T  </i>
   <i type="logical" name="ORBITALMAG"> F  </i>
   <i type="logical" name="LMAGBLOCH"> F  </i>
   <i type="logical" name="LCHIMAG"> F  </i>
   <i type="logical" name="LGAUGE"> T  </i>
   <i type="int" name="MAGATOM">     0</i>
   <v name="MAGDIPOL">      0.00000000      0.00000000      0.00000000</v>
   <v name="AVECCONST">      0.00000000      0.00000000      0.00000000</v>
  </separator>
  <separator name="response functions" >
   <i type="logical" name="LALL_IN_ONE"> F  </i>
   <i type="int" name="IALL_IN_ONE">    -1</i>
   <i type="int" name="NBANDS_WAVE">    -1</i>
   <i type="logical" name="LFINITE_TEMPERATURE"> F  </i>
   <i type="logical" name="LADDER"> F  </i>
   <i type="logical" name="LRPAFORCE"> F  </i>
   <i type="logical" name="LFXC"> F  </i>
   <i type="logical" name="LHARTREE"> T  </i>
   <i type="int" name="IBSE">     0</i>
   <v type="int" name="KPOINT">    -1     0     0     0</v>
   <i type="logical" name="LTCTC"> F  </i>
   <i type="logical" name="LTCTE"> F  </i>
   <i type="logical" name="LTETE"> F  </i>
   <i type="logical" name="LTRIPLET"> F  </i>
   <i type="logical" name="LFXCEPS"> F  </i>
   <i type="logical" name="LFXHEG"> F  </i>
   <i type="int" name="NATURALO">     2</i>
   <i type="logical" name="LHOLEGF"> F  </i>
   <i type="logical" name="L2ORDER"> F  </i>
   <i type="logical" name="LDMP1"> F  </i>
   <i type="logical" name="LMP2LT"> F  </i>
   <i type="logical" name="LSMP2LT"> F  </i>
   <i type="logical" name="LGWLF"> F  </i>
   <i name="ENCUTGW">     -1.60000002</i>
   <i name="ENCUTGWSOFT">     -1.60000002</i>
   <i name="ENCUTLF">     -1.00000000</i>
   <i type="logical" name="LESF_SPLINES"> F  </i>
   <i type="int" name="LMAXMP2">    -1</i>
   <i name="SCISSOR">      0.00000000</i>
   <i type="int" name="NOMEGA">     0</i>
   <i type="int" name="NOMEGAR">     0</i>
   <i type="int" name="NBANDSGW">    -1</i>
   <i type="int" name="NBANDSO">    -1</i>
   <i type="int" name="NBANDSV">    -1</i>
   <i type="int" name="NELMGW">     1</i>
   <i type="int" name="NELMHF">     1</i>
   <i type="int" name="DIM">     3</i>
   <i type="int" name="IESPILON">     4</i>
   <i type="int" name="ANTIRES">     0</i>
   <i name="OMEGAMAX">    -30.00000000</i>
   <i name="OMEGAMIN">    -30.00000000</i>
   <i name="OMEGATL">   -200.00000000</i>
   <i type="int" name="OMEGAGRID">     0</i>
   <i name="CSHIFT">     -0.10000000</i>
   <i type="logical" name="LSELFENERGY"> F  </i>
   <i type="logical" name="LSPECTRAL"> F  </i>
   <i type="logical" name="LSPECTRALGW"> F  </i>
   <i type="logical" name="LSINGLES"> F  </i>
   <i type="logical" name="LFERMIGW"> F  </i>
   <i type="logical" name="ODDONLYGW"> F  </i>
   <i type="logical" name="EVENONLYGW"> F  </i>
   <i type="int" name="NKREDLFX">     1</i>
   <i type="int" name="NKREDLFY">     1</i>
   <i type="int" name="NKREDLFZ">     1</i>
   <i type="int" name="MAXMEM">  2800</i>
   <i type="int" name="TELESCOPE">     0</i>
   <i type="int" name="NTAUPAR">    -1</i>
   <i type="int" name="NOMEGAPAR">    -1</i>
   <i name="DAMP_NEWTON">      0.80000001</i>
   <i name="LAMBDA">      1.00000000</i>
  </separator>
  <separator name="External order field" >
   <i name="OFIELD_KAPPA">      0.00000000</i>
   <v name="OFIELD_K">      0.00000000      0.00000000      0.00000000</v>
   <i name="OFIELD_Q6_NEAR">      0.00000000</i>
   <i name="OFIELD_Q6_FAR">      0.00000000</i>
   <i name="OFIELD_A">      0.00000000</i>
  </separator>
  <separator name="optional k-points parameters" >
   <i type="int" name="KPOINTS_OPT_MODE">     1</i>
   <i type="logical" name="LKPOINTS_OPT"> F  </i>
  </separator>
 </parameters>
 <atominfo>
  <atoms>       1 </atoms>
  <types>       1 </types>
  <array name="atoms" >
   <dimension dim="1">ion</dimension>
   <field type="string">element</field>
   <field type="int">atomtype</field>
   <set>
    <rc><c>Al</c><c>   1</c></rc>
   </set>
  </array>
  <array name="atomtypes" >
   <dimension dim="1">type</dimension>
   <field type="int">atomspertype</field>
   <field type="string">element</field>
   <field>mass</field>
   <field>valence</field>
   <field type="string">pseudopotential</field>
   <set>
    <rc><c>   1</c><c>Al</c><c>     26.98100000</c><c>      3.00000000</c><c>  PAW_PBE Al 04Jan2001                  </c></rc>
   </set>
  </array>
 </atominfo>
 <structure name="initialpos" >
  <crystal>
   <varray name="basis" >
    <v>       2.86340000       0.00000000       0.00000000 </v>
    <v>       1.43170000       2.47977714       0.00000000 </v>
    <v>       1.43170000       0.82659238       2.33795631 </v>
   </varray>
   <i name="volume">     16.60087823 </i>
   <varray name="rec_basis" >
    <v>       0.34923517      -0.20163102      -0.14257466 </v>
    <v>       0.00000000       0.40326204      -0.14257466 </v>
    <v>       0.00000000       0.00000000       0.42772399 </v>
   </varray>
  </crystal>
  <varray name="positions" >
   <v>       0.00000000       0.00000000       0.00000000 </v>
  </varray>
 </structure>
 <calculation>
  <scstep>
   <time name="dav">    0.06    0.06</time>
   <time name="total">    0.08    0.08</time>
   <energy>
    <i name="alphaZ">     -0.20232724 </i>
    <i name="ewald">    -73.36650718 </i>
    <i name="hartreedc">     -0.10424093 </i>
    <i name="XCdc">    -26.14123168 </i>
    <i name="pawpsdc">    138.73488840 </i>
    <i name="pawaedc">   -106.79088883 </i>
    <i name="eentropy">      0.00000000 </i>
    <i name="bandstr">     10.55198341 </i>
    <i name="atom">     53.53864823 </i>
    <i name="e_fr_energy">     -3.77967582 </i>
    <i name="e_wo_entrp">     -3.77967582 </i>
    <i name="e_0_energy">     -3.77967582 </i>
   </energy>
  </scstep>
  <scstep>
   <time name="dav">    0.04    0.04</time>
   <time name="total">    0.06    0.06</time>
   <energy>
    <i name="alphaZ">     -0.20232724 </i>
    <i name="ewald">    -73.36650718 </i>
    <i name="hartreedc">     -0.10424104 </i>
    <i name="XCdc">    -26.14122922 </i>
    <i name="pawpsdc">    138.72617284 </i>
    <i name="pawaedc">   -106.78217276 </i>
    <i name="eentropy">      0.00000000 </i>
    <i name="bandstr">     10.55198054 </i>
    <i name="atom">     53.53864823 </i>
    <i name="e_fr_energy">     -3.77967584 </i>
    <i name="e_wo_entrp">     -3.77967584 </i>
    <i name="e_0_energy">     -3.77967584 </i>
   </energy>
  </scstep>
  <structure>
   <crystal>
    <varray name="basis" >
     <v>       2.86340000       0.00000000       0.00000000 </v>
     <v>       1.43170000       2.47977714       0.00000000 </v>
     <v>       1.43170000       0.82659238       2.33795631 </v>
    </varray>
    <i name="volume">     16.60087823 </i>
    <varray name="rec_basis" >
     <v>       0.34923517      -0.20163102      -0.14257466 </v>
     <v>       0.00000000       0.40326204      -0.14257466 </v>
     <v>       0.00000000       0.00000000       0.42772399 </v>
    </varray>
   </crystal>
   <varray name="positions" >
    <v>       0.00000000       0.00000000       0.00000000 </v>
   </varray>
  </structure>
  <varray name="forces" >
   <v>       0.00000000       0.00000000       0.00000000 </v>
  </varray>
  <varray name="stress" >
   <v>     -10.90958118       0.00000000      -0.00000000 </v>
   <v>      -0.00000000     -10.90958118      -0.00000000 </v>
   <v>       0.00000000      -0.00000000     -10.90958118 </v>
  </varray>
  <energy>
   <i name="e_fr_energy">     -3.77967584 </i>
   <i name="e_wo_entrp">     -3.77967584 </i>
   <i name="e_0_energy">     -3.77967584 </i>
  </energy>
  <time name="totalsc">    0.24    0.24</time>
  <eigenvalues>
   <array>
    <dimension dim="1">band</dimension>
    <dimension dim="2">kpoint</dimension>
    <dimension dim="3">spin</dimension>
    <field>eigene</field>
    <field>occ</field>
    <set>
     <set comment="spin 1">
      <set comment="kpoint 1">
       <r>   -3.1563    1.0000 </r>
       <r>   20.5215    0.0000 </r>
       <r>   20.5215    0.0000 </r>
       <r>   20.5215    0.0000 </r>
       <r>   21.9662    0.0000 </r>
      </set>
      <set comment="kpoint 2">
       <r>   -2.4059    1.0000 </r>
       <r>   14.5542    0.0000 </r>
       <r>   19.2414    0.0000 </r>
       <r>   19.2414    0.0000 </r>
       <r>   22.4625    0.0000 </r>
      </set>
      <set comment="kpoint 3">
       <r>   -0.1781    1.0000 </r>
       <r>    8.4294    0.3594 </r>
       <r>   18.6599    0.0000 </r>
       <r>   18.6599    0.0000 </r>
       <r>   21.2459    0.0000 </r>
      </set>
      <set comment="kpoint 4">
       <r>    3.3675    1.0000 </r>
       <r>    3.5641    1.0128 </r>
       <r>   19.2799    0.0000 </r>
       <r>   19.2799    0.0000 </r>
       <r>   19.3690    0.0000 </r>
      </set>
      <set comment="kpoint 5">
       <r>   -2.1567    1.0000 </r>
       <r>   16.9110    0.0000 </r>
       <r>   16.9110    0.0000 </r>
       <r>   17.0830    0.0000 </r>
       <r>   20.1480    0.0000 </r>
      </set>
      <set comment="kpoint 6">
       <r>   -0.4241    1.0000 </r>
       <r>   10.9262   -0.0525 </r>
       <r>   15.8551    0.0000 </r>
       <r>   16.5882    0.0000 </r>
       <r>   17.4994    0.0000 </r>
      </set>
      <set comment="kpoint 7">
       <r>    2.7363    1.0000 </r>
       <r>    5.6101    1.0202 </r>
       <r>   14.1296    0.0000 </r>
       <r>   16.0813    0.0000 </r>
       <r>   17.8604    0.0000 </r>
      </set>
      <set comment="kpoint 8">
       <r>    1.5308    1.0000 </r>
       <r>    7.2354    0.7420 </r>
       <r>   13.0209    0.0000 </r>
       <r>   17.5911    0.0000 </r>
       <r>   19.5164    0.0000 </r>
      </set>
      <set comment="kpoint 9">
       <r>   -1.1640    1.0000 </r>
       <r>   12.4084   -0.0524 </r>
       <r>   13.8070    0.0000 </r>
       <r>   20.3423    0.0000 </r>
       <r>   22.3682    0.0000 </r>
      </set>
      <set comment="kpoint 10">
       <r>    0.7987    1.0000 </r>
       <r>   12.2990   -0.0396 </r>
       <r>   14.1797    0.0000 </r>
       <r>   14.3545    0.0000 </r>
       <r>   14.3545    0.0000 </r>
      </set>
      <set comment="kpoint 11">
       <r>    3.4371    1.0000 </r>
       <r>    8.9686    0.2265 </r>
       <r>    9.4288    0.0000 </r>
       <r>   14.1447    0.0000 </r>
       <r>   15.6514    0.0000 </r>
      </set>
      <set comment="kpoint 12">
       <r>    4.6430    1.0000 </r>
       <r>    6.8671    0.9980 </r>
       <r>    8.3196    0.0000 </r>
       <r>   15.2220    0.0000 </r>
       <r>   16.9844    0.0000 </r>
      </set>
      <set comment="kpoint 13">
       <r>    5.0269    1.0000 </r>
       <r>    6.3363    1.0144 </r>
       <r>   13.1928    0.0000 </r>
       <r>   13.5016    0.0000 </r>
       <r>   13.5016    0.0000 </r>
      </set>
      <set comment="kpoint 14">
       <r>    1.7710    1.0000 </r>
       <r>    9.6371    0.1640 </r>
       <r>   11.0860    0.0000 </r>
       <r>   13.2841    0.0000 </r>
       <r>   20.7115    0.0000 </r>
      </set>
      <set comment="kpoint 15">
       <r>    5.2157    1.0000 </r>
       <r>    5.4708    1.0816 </r>
       <r>   10.9329    0.0000 </r>
       <r>   11.4863    0.0000 </r>
       <r>   21.9032    0.0000 </r>
      </set>
      <set comment="kpoint 16">
       <r>    5.9462    1.0000 </r>
       <r>    7.2855    0.8797 </r>
       <r>    8.7130    0.0000 </r>
       <r>   10.2664    0.0000 </r>
       <r>   19.8251    0.0000 </r>
      </set>
     </set>
    </set>
   </array>
  </eigenvalues>
  <separator name="orbital magnetization" >
   <v name="MAGDIPOLOUT">      0.00000000      0.00000000      0.00000000</v>
  </separator>
  <dos>
   <i name="efermi">      8.06471463 </i>
   <total>
    <array>
     <dimension dim="1">gridpoints</dimension>
     <dimension dim="2">spin</dimension>
     <field>energy</field>
     <field>total</field>
     <field>integrated</field>
     <set>
      <set comment="spin 1">
       <r>    -5.1563     0.0000     0.0000 </r>
       <r>    -5.0576     0.0000     0.0000 </r>
       <r>    -4.9589     0.0000     0.0000 </r>
       <r>    -4.8601     0.0000     0.0000 </r>
       <r>    -4.7614     0.0000     0.0000 </r>
       <r>    -4.6627     0.0000     0.0000 </r>
       <r>    -4.5640     0.0000     0.0000 </r>
       <r>    -4.4652     0.0000     0.0000 </r>
       <r>    -4.3665     0.0000     0.0000 </r>
       <r>    -4.2678     0.0000     0.0000 </r>
       <r>    -4.1690     0.0000     0.0000 </r>
       <r>    -4.0703     0.0000     0.0000 </r>
       <r>    -3.9716     0.0000     0.0000 </r>
       <r>    -3.8728     0.0000     0.0000 </r>
       <r>    -3.7741     0.0000     0.0000 </r>
       <r>    -3.6754     0.0000     0.0000 </r>
       <r>    -3.5767     0.0000     0.0000 </r>
       <r>    -3.4779     0.0000     0.0000 </r>
       <r>    -3.3792     0.0000     0.0000 </r>
       <r>    -3.2805     0.0000     0.0000 </r>
       <r>    -3.1817     0.0000     0.0000 </r>
       <r>    -3.0830     0.0011     0.0000 </r>
       <r>    -2.9843     0.0058     0.0003 </r>
       <r>    -2.8856     0.0145     0.0013 </r>
       <r>    -2.7868     0.0270     0.0033 </r>
       <r>    -2.6881     0.0433     0.0068 </r>
       <r>    -2.5894     0.0635     0.0120 </r>
       <r>    -2.4906     0.0875     0.0194 </r>
       <r>    -2.3919     0.1088     0.0293 </r>
       <r>    -2.2932     0.0974     0.0395 </r>
       <r>    -2.1944     0.0951     0.0489 </r>
       <r>    -2.0957     0.1000     0.0585 </r>
       <r>    -1.9970     0.1058     0.0686 </r>
       <r>    -1.8983     0.1116     0.0794 </r>
       <r>    -1.7995     0.1176     0.0907 </r>
       <r>    -1.7008     0.1238     0.1026 </r>
       <r>    -1.6021     0.1301     0.1151 </r>
       <r>    -1.5033     0.1365     0.1283 </r>
       <r>    -1.4046     0.1430     0.1421 </r>
       <r>    -1.3059     0.1497     0.1565 </r>
       <r>    -1.2071     0.1565     0.1716 </r>
       <r>    -1.1084     0.1632     0.1874 </r>
       <r>    -1.0097     0.1692     0.2038 </r>
       <r>    -0.9110     0.1742     0.2208 </r>
       <r>    -0.8122     0.1784     0.2382 </r>
       <r>    -0.7135     0.1816     0.2560 </r>
       <r>    -0.6148     0.1839     0.2741 </r>
       <r>    -0.5160     0.1854     0.2923 </r>
       <r>    -0.4173     0.1860     0.3106 </r>
       <r>    -0.3186     0.1880     0.3291 </r>
       <r>    -0.2199     0.1910     0.3478 </r>
       <r>    -0.1211     0.1947     0.3668 </r>
       <r>    -0.0224     0.1985     0.3862 </r>
       <r>     0.0763     0.2023     0.4060 </r>
       <r>     0.1751     0.2061     0.4262 </r>
       <r>     0.2738     0.2100     0.4467 </r>
       <r>     0.3725     0.2140     0.4676 </r>
       <r>     0.4713     0.2179     0.4890 </r>
       <r>     0.5700     0.2219     0.5107 </r>
       <r>     0.6687     0.2260     0.5328 </r>
       <r>     0.7674     0.2300     0.5553 </r>
       <r>     0.8662     0.2341     0.5782 </r>
       <r>     0.9649     0.2383     0.6015 </r>
       <r>     1.0636     0.2425     0.6253 </r>
       <r>     1.1624     0.2467     0.6494 </r>
       <r>     1.2611     0.2510     0.6740 </r>
       <r>     1.3598     0.2553     0.6990 </r>
       <r>     1.4585     0.2597     0.7244 </r>
       <r>     1.5573     0.2630     0.7502 </r>
       <r>     1.6560     0.2655     0.7763 </r>
       <r>     1.7547     0.2712     0.8028 </r>
       <r>     1.8535     0.2799     0.8299 </r>
       <r>     1.9522     0.2904     0.8581 </r>
       <r>     2.0509     0.3029     0.8874 </r>
       <r>     2.1497     0.3173     0.9180 </r>
       <r>     2.2484     0.3336     0.9501 </r>
       <r>     2.3471     0.3519     0.9839 </r>
       <r>     2.4458     0.3720     1.0196 </r>
       <r>     2.5446     0.3941     1.0574 </r>
       <r>     2.6433     0.4180     1.0975 </r>
       <r>     2.7420     0.4398     1.1400 </r>
       <r>     2.8408     0.3983     1.1813 </r>
       <r>     2.9395     0.3643     1.2189 </r>
       <r>     3.0382     0.3378     1.2535 </r>
       <r>     3.1369     0.3188     1.2859 </r>
       <r>     3.2357     0.3073     1.3167 </r>
       <r>     3.3344     0.3032     1.3468 </r>
       <r>     3.4331     0.3050     1.3768 </r>
       <r>     3.5319     0.3185     1.4076 </r>
       <r>     3.6306     0.3298     1.4396 </r>
       <r>     3.7293     0.3388     1.4726 </r>
       <r>     3.8281     0.3453     1.5064 </r>
       <r>     3.9268     0.3494     1.5407 </r>
       <r>     4.0255     0.3512     1.5753 </r>
       <r>     4.1242     0.3506     1.6100 </r>
       <r>     4.2230     0.3476     1.6445 </r>
       <r>     4.3217     0.3423     1.6786 </r>
       <r>     4.4204     0.3345     1.7120 </r>
       <r>     4.5192     0.3244     1.7445 </r>
       <r>     4.6179     0.3119     1.7760 </r>
       <r>     4.7166     0.2983     1.8061 </r>
       <r>     4.8154     0.2865     1.8349 </r>
       <r>     4.9141     0.2769     1.8627 </r>
       <r>     5.0128     0.2692     1.8897 </r>
       <r>     5.1115     0.2643     1.9160 </r>
       <r>     5.2103     0.2630     1.9420 </r>
       <r>     5.3090     0.2539     1.9675 </r>
       <r>     5.4077     0.2412     1.9920 </r>
       <r>     5.5065     0.2431     2.0153 </r>
       <r>     5.6052     0.3757     2.0447 </r>
       <r>     5.7039     0.3891     2.0830 </r>
       <r>     5.8026     0.3846     2.1212 </r>
       <r>     5.9014     0.3722     2.1586 </r>
       <r>     6.0001     0.3751     2.1951 </r>
       <r>     6.0988     0.3921     2.2330 </r>
       <r>     6.1976     0.4049     2.2724 </r>
       <r>     6.2963     0.4135     2.3128 </r>
       <r>     6.3950     0.4180     2.3539 </r>
       <r>     6.4938     0.4189     2.3952 </r>
       <r>     6.5925     0.4163     2.4365 </r>
       <r>     6.6912     0.4103     2.4773 </r>
       <r>     6.7899     0.4007     2.5174 </r>
       <r>     6.8887     0.3880     2.5563 </r>
       <r>     6.9874     0.3795     2.5941 </r>
       <r>     7.0861     0.3789     2.6315 </r>
       <r>     7.1849     0.3861     2.6692 </r>
       <r>     7.2836     0.3889     2.7077 </r>
       <r>     7.3823     0.3870     2.7460 </r>
       <r>     7.4810     0.3844     2.7841 </r>
       <r>     7.5798     0.3808     2.8219 </r>
       <r>     7.6785     0.3763     2.8593 </r>
       <r>     7.7772     0.3709     2.8962 </r>
       <r>     7.8760     0.3646     2.9325 </r>
       <r>     7.9747     0.3574     2.9682 </r>
       <r>     8.0734     0.3493     3.0030 </r>
       <r>     8.1722     0.3402     3.0371 </r>
       <r>     8.2709     0.3303     3.0702 </r>
       <r>     8.3696     0.3207     3.1023 </r>
       <r>     8.4683     0.3186     3.1338 </r>
       <r>     8.5671     0.3253     3.1655 </r>
       <r>     8.6658     0.3407     3.1983 </r>
       <r>     8.7645     0.3653     3.2331 </r>
       <r>     8.8633     0.3881     3.2703 </r>
       <r>     8.9620     0.4054     3.3095 </r>
       <r>     9.0607     0.4222     3.3504 </r>
       <r>     9.1594     0.4364     3.3928 </r>
       <r>     9.2582     0.4479     3.4365 </r>
       <r>     9.3569     0.4567     3.4812 </r>
       <r>     9.4556     0.4620     3.5266 </r>
       <r>     9.5544     0.4651     3.5723 </r>
       <r>     9.6531     0.4693     3.6184 </r>
       <r>     9.7518     0.4738     3.6650 </r>
       <r>     9.8506     0.4779     3.7120 </r>
       <r>     9.9493     0.4817     3.7593 </r>
       <r>    10.0480     0.4851     3.8071 </r>
       <r>    10.1467     0.4883     3.8551 </r>
       <r>    10.2455     0.4911     3.9035 </r>
       <r>    10.3442     0.5048     3.9525 </r>
       <r>    10.4429     0.5205     4.0032 </r>
       <r>    10.5417     0.5348     4.0553 </r>
       <r>    10.6404     0.5479     4.1087 </r>
       <r>    10.7391     0.5597     4.1634 </r>
       <r>    10.8379     0.5702     4.2192 </r>
       <r>    10.9366     0.5733     4.2759 </r>
       <r>    11.0353     0.4917     4.3279 </r>
       <r>    11.1340     0.4751     4.3753 </r>
       <r>    11.2328     0.4683     4.4219 </r>
       <r>    11.3315     0.4618     4.4678 </r>
       <r>    11.4302     0.4556     4.5131 </r>
       <r>    11.5290     0.4510     4.5578 </r>
       <r>    11.6277     0.4493     4.6022 </r>
       <r>    11.7264     0.4490     4.6466 </r>
       <r>    11.8251     0.4499     4.6909 </r>
       <r>    11.9239     0.4520     4.7354 </r>
       <r>    12.0226     0.4555     4.7802 </r>
       <r>    12.1213     0.4602     4.8254 </r>
       <r>    12.2201     0.4662     4.8711 </r>
       <r>    12.3188     0.4735     4.9175 </r>
       <r>    12.4175     0.4816     4.9646 </r>
       <r>    12.5163     0.4901     5.0126 </r>
       <r>    12.6150     0.4989     5.0614 </r>
       <r>    12.7137     0.5079     5.1111 </r>
       <r>    12.8124     0.5172     5.1617 </r>
       <r>    12.9112     0.5268     5.2133 </r>
       <r>    13.0099     0.5366     5.2657 </r>
       <r>    13.1086     0.5361     5.3188 </r>
       <r>    13.2074     0.5348     5.3716 </r>
       <r>    13.3061     0.5342     5.4244 </r>
       <r>    13.4048     0.5367     5.4772 </r>
       <r>    13.5035     0.5436     5.5305 </r>
       <r>    13.6023     0.5567     5.5848 </r>
       <r>    13.7010     0.5777     5.6407 </r>
       <r>    13.7997     0.6066     5.6991 </r>
       <r>    13.8985     0.6432     5.7607 </r>
       <r>    13.9972     0.6871     5.8263 </r>
       <r>    14.0959     0.7383     5.8966 </r>
       <r>    14.1947     0.6770     5.9693 </r>
       <r>    14.2934     0.5718     6.0302 </r>
       <r>    14.3921     0.5558     6.0853 </r>
       <r>    14.4908     0.5581     6.1403 </r>
       <r>    14.5896     0.5594     6.1955 </r>
       <r>    14.6883     0.5587     6.2507 </r>
       <r>    14.7870     0.5580     6.3058 </r>
       <r>    14.8858     0.5572     6.3608 </r>
       <r>    14.9845     0.5564     6.4158 </r>
       <r>    15.0832     0.5555     6.4707 </r>
       <r>    15.1819     0.5545     6.5255 </r>
       <r>    15.2807     0.5534     6.5802 </r>
       <r>    15.3794     0.5523     6.6348 </r>
       <r>    15.4781     0.5511     6.6892 </r>
       <r>    15.5769     0.5499     6.7436 </r>
       <r>    15.6756     0.5498     6.7978 </r>
       <r>    15.7743     0.5536     6.8523 </r>
       <r>    15.8731     0.5546     6.9071 </r>
       <r>    15.9718     0.5421     6.9613 </r>
       <r>    16.0705     0.5307     7.0142 </r>
       <r>    16.1692     0.5234     7.0662 </r>
       <r>    16.2680     0.5191     7.1177 </r>
       <r>    16.3667     0.5175     7.1688 </r>
       <r>    16.4654     0.5187     7.2199 </r>
       <r>    16.5642     0.5226     7.2713 </r>
       <r>    16.6629     0.5237     7.3230 </r>
       <r>    16.7616     0.5251     7.3748 </r>
       <r>    16.8603     0.5283     7.4267 </r>
       <r>    16.9591     0.5332     7.4791 </r>
       <r>    17.0578     0.5392     7.5321 </r>
       <r>    17.1565     0.5458     7.5856 </r>
       <r>    17.2553     0.5520     7.6398 </r>
       <r>    17.3540     0.5578     7.6946 </r>
       <r>    17.4527     0.5631     7.7499 </r>
       <r>    17.5515     0.5672     7.8058 </r>
       <r>    17.6502     0.5720     7.8620 </r>
       <r>    17.7489     0.5782     7.9188 </r>
       <r>    17.8476     0.5857     7.9762 </r>
       <r>    17.9464     0.6136     8.0353 </r>
       <r>    18.0451     0.6409     8.0973 </r>
       <r>    18.1438     0.6643     8.1617 </r>
       <r>    18.2426     0.6840     8.2283 </r>
       <r>    18.3413     0.6998     8.2967 </r>
       <r>    18.4400     0.7118     8.3664 </r>
       <r>    18.5388     0.7200     8.4371 </r>
       <r>    18.6375     0.7244     8.5084 </r>
       <r>    18.7362     0.7254     8.5800 </r>
       <r>    18.8349     0.7240     8.6516 </r>
       <r>    18.9337     0.7204     8.7229 </r>
       <r>    19.0324     0.7144     8.7937 </r>
       <r>    19.1311     0.7062     8.8639 </r>
       <r>    19.2299     0.6956     8.9331 </r>
       <r>    19.3286     0.6638     9.0003 </r>
       <r>    19.4273     0.6297     9.0642 </r>
       <r>    19.5260     0.5975     9.1247 </r>
       <r>    19.6248     0.5664     9.1822 </r>
       <r>    19.7235     0.5369     9.2366 </r>
       <r>    19.8222     0.5091     9.2883 </r>
       <r>    19.9210     0.4876     9.3374 </r>
       <r>    20.0197     0.4675     9.3846 </r>
       <r>    20.1184     0.4486     9.4298 </r>
       <r>    20.2172     0.4310     9.4732 </r>
       <r>    20.3159     0.4148     9.5150 </r>
       <r>    20.4146     0.3994     9.5551 </r>
       <r>    20.5133     0.3836     9.5938 </r>
       <r>    20.6121     0.3669     9.6309 </r>
       <r>    20.7108     0.3490     9.6662 </r>
       <r>    20.8095     0.3305     9.6998 </r>
       <r>    20.9083     0.3121     9.7315 </r>
       <r>    21.0070     0.2939     9.7614 </r>
       <r>    21.1057     0.2759     9.7895 </r>
       <r>    21.2044     0.2580     9.8159 </r>
       <r>    21.3032     0.2402     9.8405 </r>
       <r>    21.4019     0.2218     9.8633 </r>
       <r>    21.5006     0.2027     9.8842 </r>
       <r>    21.5994     0.1829     9.9033 </r>
       <r>    21.6981     0.1625     9.9203 </r>
       <r>    21.7968     0.1413     9.9353 </r>
       <r>    21.8956     0.1195     9.9482 </r>
       <r>    21.9943     0.1155     9.9597 </r>
       <r>    22.0930     0.1094     9.9709 </r>
       <r>    22.1917     0.0986     9.9812 </r>
       <r>    22.2905     0.0831     9.9902 </r>
       <r>    22.3892     0.0605     9.9974 </r>
       <r>    22.4879     0.0000    10.0000 </r>
       <r>    22.5867     0.0000    10.0000 </r>
       <r>    22.6854     0.0000    10.0000 </r>
       <r>    22.7841     0.0000    10.0000 </r>
       <r>    22.8828     0.0000    10.0000 </r>
       <r>    22.9816     0.0000    10.0000 </r>
       <r>    23.0803     0.0000    10.0000 </r>
       <r>    23.1790     0.0000    10.0000 </r>
       <r>    23.2778     0.0000    10.0000 </r>
       <r>    23.3765     0.0000    10.0000 </r>
       <r>    23.4752     0.0000    10.0000 </r>
       <r>    23.5740     0.0000    10.0000 </r>
       <r>    23.6727     0.0000    10.0000 </r>
       <r>    23.7714     0.0000    10.0000 </r>
       <r>    23.8701     0.0000    10.0000 </r>
       <r>    23.9689     0.0000    10.0000 </r>
       <r>    24.0676     0.0000    10.0000 </r>
       <r>    24.1663     0.0000    10.0000 </r>
       <r>    24.2651     0.0000    10.0000 </r>
       <r>    24.3638     0.0000    10.0000 </r>
       <r>    24.4625     0.0000    10.0000 </r>
      </set>
     </set>
    </array>
   </total>
  </dos>
 </calculation>
 <structure name="finalpos" >
  <crystal>
   <varray name="basis" >
    <v>       2.86340000       0.00000000       0.00000000 </v>
    <v>       1.43170000       2.47977714       0.00000000 </v>
    <v>       1.43170000       0.82659238       2.33795631 </v>
   </varray>
   <i name="volume">     16.60087823 </i>
   <varray name="rec_basis" >
    <v>       0.34923517      -0.20163102      -0.14257466 </v>
    <v>       0.00000000       0.40326204      -0.14257466 </v>
    <v>       0.00000000       0.00000000       0.42772399 </v>
   </varray>
  </crystal>
  <varray name="positions" >
   <v>       0.00000000       0.00000000       0.00000000 </v>
  </varray>
 </structure>
</modeling>
