<?xml version="1.0" encoding="ISO-8859-1"?>
<modeling>
 <generator>
  <i name="program" type="string">vasp </i>
  <i name="version" type="string">6.4.2  </i>
  <i name="subversion" type="string">20Jul23 (build Oct 18 2023 12:49:41) complex                          parallel </i>
  <i name="platform" type="string">LinuxGNU </i>
  <i name="date" type="string">2025 04 11 </i>
  <i name="time" type="string">08:30:51 </i>
 </generator>
 <incar>
  <i type="string" name="SYSTEM">Al atom</i>
  <i type="int" name="NSIM">     1</i>
  <i name="ENCUT">    400.00000000</i>
  <i type="int" name="ISMEAR">    -5</i>
  <i type="logical" name="LCHARG"> F  </i>
 </incar>
 <primitive_cell>
  <structure name="primitive_cell" >
   <crystal>
    <varray name="basis" >
     <v>       2.33913090       0.00000000       0.00000000 </v>
     <v>       1.16956545       2.02574678       0.00000000 </v>
     <v>       1.16956545       0.67524893       1.90989238 </v>
    </varray>
    <i name="volume">      9.05000000 </i>
    <varray name="rec_basis" >
     <v>       0.42750921      -0.24682256      -0.17452990 </v>
     <v>       0.00000000       0.49364511      -0.17452990 </v>
     <v>       0.00000000       0.00000000       0.52358971 </v>
    </varray>
   </crystal>
   <varray name="positions" >
    <v>       0.00000000       0.00000000       0.00000000 </v>
   </varray>
  </structure>
  <varray name="primitive_index" >
   <v type="int" >        1 </v>
  </varray>
 </primitive_cell>
 <kpoints>
  <generation param="Gamma">
   <v type="int" name="divisions">      25       25       25 </v>
   <v name="usershift">      0.00000000       0.00000000       0.00000000 </v>
   <v name="genvec1">      0.04000000       0.00000000       0.00000000 </v>
   <v name="genvec2">      0.00000000       0.04000000       0.00000000 </v>
   <v name="genvec3">      0.00000000       0.00000000       0.04000000 </v>
   <v name="shift">      0.00000000       0.00000000       0.00000000 </v>
  </generation>
  <varray name="kpointlist" >
   <v>       0.00000000       0.00000000       0.00000000 </v>
   <v>       0.04000000       0.00000000       0.00000000 </v>
   <v>       0.08000000       0.00000000       0.00000000 </v>
   <v>       0.12000000       0.00000000       0.00000000 </v>
   <v>       0.16000000       0.00000000       0.00000000 </v>
   <v>       0.20000000       0.00000000       0.00000000 </v>
   <v>       0.24000000       0.00000000       0.00000000 </v>
   <v>       0.28000000       0.00000000       0.00000000 </v>
   <v>       0.32000000       0.00000000       0.00000000 </v>
   <v>       0.36000000       0.00000000       0.00000000 </v>
   <v>       0.40000000       0.00000000       0.00000000 </v>
   <v>       0.44000000       0.00000000       0.00000000 </v>
   <v>       0.48000000       0.00000000       0.00000000 </v>
   <v>       0.04000000       0.04000000       0.00000000 </v>
   <v>       0.08000000       0.04000000       0.00000000 </v>
   <v>       0.12000000       0.04000000       0.00000000 </v>
   <v>       0.16000000       0.04000000       0.00000000 </v>
   <v>       0.20000000       0.04000000       0.00000000 </v>
   <v>       0.24000000       0.04000000       0.00000000 </v>
   <v>       0.28000000       0.04000000       0.00000000 </v>
   <v>       0.32000000       0.04000000       0.00000000 </v>
   <v>       0.36000000       0.04000000       0.00000000 </v>
   <v>       0.40000000       0.04000000       0.00000000 </v>
   <v>       0.44000000       0.04000000       0.00000000 </v>
   <v>       0.48000000       0.04000000       0.00000000 </v>
   <v>      -0.48000000       0.04000000       0.00000000 </v>
   <v>      -0.44000000       0.04000000       0.00000000 </v>
   <v>      -0.40000000       0.04000000       0.00000000 </v>
   <v>      -0.36000000       0.04000000       0.00000000 </v>
   <v>      -0.32000000       0.04000000       0.00000000 </v>
   <v>      -0.28000000       0.04000000       0.00000000 </v>
   <v>      -0.24000000       0.04000000       0.00000000 </v>
   <v>      -0.20000000       0.04000000       0.00000000 </v>
   <v>      -0.16000000       0.04000000       0.00000000 </v>
   <v>      -0.12000000       0.04000000       0.00000000 </v>
   <v>      -0.08000000       0.04000000       0.00000000 </v>
   <v>      -0.04000000       0.04000000       0.00000000 </v>
   <v>       0.08000000       0.08000000       0.00000000 </v>
   <v>       0.12000000       0.08000000       0.00000000 </v>
   <v>       0.16000000       0.08000000       0.00000000 </v>
   <v>       0.20000000       0.08000000       0.00000000 </v>
   <v>       0.24000000       0.08000000       0.00000000 </v>
   <v>       0.28000000       0.08000000       0.00000000 </v>
   <v>       0.32000000       0.08000000       0.00000000 </v>
   <v>       0.36000000       0.08000000       0.00000000 </v>
   <v>       0.40000000       0.08000000       0.00000000 </v>
   <v>       0.44000000       0.08000000       0.00000000 </v>
   <v>       0.48000000       0.08000000       0.00000000 </v>
   <v>      -0.48000000       0.08000000       0.00000000 </v>
   <v>      -0.44000000       0.08000000       0.00000000 </v>
   <v>      -0.40000000       0.08000000       0.00000000 </v>
   <v>      -0.36000000       0.08000000       0.00000000 </v>
   <v>      -0.32000000       0.08000000       0.00000000 </v>
   <v>      -0.28000000       0.08000000       0.00000000 </v>
   <v>      -0.24000000       0.08000000       0.00000000 </v>
   <v>      -0.20000000       0.08000000       0.00000000 </v>
   <v>      -0.16000000       0.08000000       0.00000000 </v>
   <v>      -0.12000000       0.08000000       0.00000000 </v>
   <v>      -0.08000000       0.08000000       0.00000000 </v>
   <v>       0.12000000       0.12000000       0.00000000 </v>
   <v>       0.16000000       0.12000000       0.00000000 </v>
   <v>       0.20000000       0.12000000       0.00000000 </v>
   <v>       0.24000000       0.12000000       0.00000000 </v>
   <v>       0.28000000       0.12000000       0.00000000 </v>
   <v>       0.32000000       0.12000000       0.00000000 </v>
   <v>       0.36000000       0.12000000       0.00000000 </v>
   <v>       0.40000000       0.12000000       0.00000000 </v>
   <v>       0.44000000       0.12000000       0.00000000 </v>
   <v>       0.48000000       0.12000000       0.00000000 </v>
   <v>      -0.48000000       0.12000000       0.00000000 </v>
   <v>      -0.44000000       0.12000000       0.00000000 </v>
   <v>      -0.40000000       0.12000000       0.00000000 </v>
   <v>      -0.36000000       0.12000000       0.00000000 </v>
   <v>      -0.32000000       0.12000000       0.00000000 </v>
   <v>      -0.28000000       0.12000000       0.00000000 </v>
   <v>      -0.24000000       0.12000000       0.00000000 </v>
   <v>      -0.20000000       0.12000000       0.00000000 </v>
   <v>      -0.16000000       0.12000000       0.00000000 </v>
   <v>      -0.12000000       0.12000000       0.00000000 </v>
   <v>       0.16000000       0.16000000       0.00000000 </v>
   <v>       0.20000000       0.16000000       0.00000000 </v>
   <v>       0.24000000       0.16000000       0.00000000 </v>
   <v>       0.28000000       0.16000000       0.00000000 </v>
   <v>       0.32000000       0.16000000       0.00000000 </v>
   <v>       0.36000000       0.16000000       0.00000000 </v>
   <v>       0.40000000       0.16000000       0.00000000 </v>
   <v>       0.44000000       0.16000000       0.00000000 </v>
   <v>       0.48000000       0.16000000       0.00000000 </v>
   <v>      -0.48000000       0.16000000       0.00000000 </v>
   <v>      -0.44000000       0.16000000       0.00000000 </v>
   <v>      -0.40000000       0.16000000       0.00000000 </v>
   <v>      -0.36000000       0.16000000       0.00000000 </v>
   <v>      -0.32000000       0.16000000       0.00000000 </v>
   <v>      -0.28000000       0.16000000       0.00000000 </v>
   <v>      -0.24000000       0.16000000       0.00000000 </v>
   <v>      -0.20000000       0.16000000       0.00000000 </v>
   <v>      -0.16000000       0.16000000       0.00000000 </v>
   <v>       0.20000000       0.20000000       0.00000000 </v>
   <v>       0.24000000       0.20000000       0.00000000 </v>
   <v>       0.28000000       0.20000000       0.00000000 </v>
   <v>       0.32000000       0.20000000       0.00000000 </v>
   <v>       0.36000000       0.20000000       0.00000000 </v>
   <v>       0.40000000       0.20000000       0.00000000 </v>
   <v>       0.44000000       0.20000000       0.00000000 </v>
   <v>       0.48000000       0.20000000       0.00000000 </v>
   <v>      -0.48000000       0.20000000       0.00000000 </v>
   <v>      -0.44000000       0.20000000       0.00000000 </v>
   <v>      -0.40000000       0.20000000       0.00000000 </v>
   <v>      -0.36000000       0.20000000       0.00000000 </v>
   <v>      -0.32000000       0.20000000       0.00000000 </v>
   <v>      -0.28000000       0.20000000       0.00000000 </v>
   <v>      -0.24000000       0.20000000       0.00000000 </v>
   <v>      -0.20000000       0.20000000       0.00000000 </v>
   <v>       0.24000000       0.24000000       0.00000000 </v>
   <v>       0.28000000       0.24000000       0.00000000 </v>
   <v>       0.32000000       0.24000000       0.00000000 </v>
   <v>       0.36000000       0.24000000       0.00000000 </v>
   <v>       0.40000000       0.24000000       0.00000000 </v>
   <v>       0.44000000       0.24000000       0.00000000 </v>
   <v>       0.48000000       0.24000000       0.00000000 </v>
   <v>      -0.48000000       0.24000000       0.00000000 </v>
   <v>      -0.44000000       0.24000000       0.00000000 </v>
   <v>      -0.40000000       0.24000000       0.00000000 </v>
   <v>      -0.36000000       0.24000000       0.00000000 </v>
   <v>      -0.32000000       0.24000000       0.00000000 </v>
   <v>      -0.28000000       0.24000000       0.00000000 </v>
   <v>      -0.24000000       0.24000000       0.00000000 </v>
   <v>       0.28000000       0.28000000       0.00000000 </v>
   <v>       0.32000000       0.28000000       0.00000000 </v>
   <v>       0.36000000       0.28000000       0.00000000 </v>
   <v>       0.40000000       0.28000000       0.00000000 </v>
   <v>       0.44000000       0.28000000       0.00000000 </v>
   <v>       0.48000000       0.28000000       0.00000000 </v>
   <v>      -0.48000000       0.28000000       0.00000000 </v>
   <v>      -0.44000000       0.28000000       0.00000000 </v>
   <v>      -0.40000000       0.28000000       0.00000000 </v>
   <v>      -0.36000000       0.28000000       0.00000000 </v>
   <v>      -0.32000000       0.28000000       0.00000000 </v>
   <v>      -0.28000000       0.28000000       0.00000000 </v>
   <v>       0.32000000       0.32000000       0.00000000 </v>
   <v>       0.36000000       0.32000000       0.00000000 </v>
   <v>       0.40000000       0.32000000       0.00000000 </v>
   <v>       0.44000000       0.32000000       0.00000000 </v>
   <v>       0.48000000       0.32000000       0.00000000 </v>
   <v>      -0.48000000       0.32000000       0.00000000 </v>
   <v>      -0.44000000       0.32000000       0.00000000 </v>
   <v>      -0.40000000       0.32000000       0.00000000 </v>
   <v>      -0.36000000       0.32000000       0.00000000 </v>
   <v>      -0.32000000       0.32000000       0.00000000 </v>
   <v>       0.36000000       0.36000000       0.00000000 </v>
   <v>       0.40000000       0.36000000       0.00000000 </v>
   <v>       0.44000000       0.36000000       0.00000000 </v>
   <v>       0.48000000       0.36000000       0.00000000 </v>
   <v>      -0.48000000       0.36000000       0.00000000 </v>
   <v>      -0.44000000       0.36000000       0.00000000 </v>
   <v>      -0.40000000       0.36000000       0.00000000 </v>
   <v>      -0.36000000       0.36000000       0.00000000 </v>
   <v>       0.40000000       0.40000000       0.00000000 </v>
   <v>       0.44000000       0.40000000       0.00000000 </v>
   <v>       0.48000000       0.40000000       0.00000000 </v>
   <v>      -0.48000000       0.40000000       0.00000000 </v>
   <v>      -0.44000000       0.40000000       0.00000000 </v>
   <v>      -0.40000000       0.40000000       0.00000000 </v>
   <v>       0.44000000       0.44000000       0.00000000 </v>
   <v>       0.48000000       0.44000000       0.00000000 </v>
   <v>      -0.48000000       0.44000000       0.00000000 </v>
   <v>      -0.44000000       0.44000000       0.00000000 </v>
   <v>       0.48000000       0.48000000       0.00000000 </v>
   <v>      -0.48000000       0.48000000       0.00000000 </v>
   <v>       0.12000000       0.08000000       0.04000000 </v>
   <v>       0.16000000       0.08000000       0.04000000 </v>
   <v>       0.20000000       0.08000000       0.04000000 </v>
   <v>       0.24000000       0.08000000       0.04000000 </v>
   <v>       0.28000000       0.08000000       0.04000000 </v>
   <v>       0.32000000       0.08000000       0.04000000 </v>
   <v>       0.36000000       0.08000000       0.04000000 </v>
   <v>       0.40000000       0.08000000       0.04000000 </v>
   <v>       0.44000000       0.08000000       0.04000000 </v>
   <v>       0.48000000       0.08000000       0.04000000 </v>
   <v>      -0.48000000       0.08000000       0.04000000 </v>
   <v>       0.16000000       0.12000000       0.04000000 </v>
   <v>       0.20000000       0.12000000       0.04000000 </v>
   <v>       0.24000000       0.12000000       0.04000000 </v>
   <v>       0.28000000       0.12000000       0.04000000 </v>
   <v>       0.32000000       0.12000000       0.04000000 </v>
   <v>       0.36000000       0.12000000       0.04000000 </v>
   <v>       0.40000000       0.12000000       0.04000000 </v>
   <v>       0.44000000       0.12000000       0.04000000 </v>
   <v>       0.48000000       0.12000000       0.04000000 </v>
   <v>      -0.48000000       0.12000000       0.04000000 </v>
   <v>      -0.44000000       0.12000000       0.04000000 </v>
   <v>      -0.40000000       0.12000000       0.04000000 </v>
   <v>      -0.36000000       0.12000000       0.04000000 </v>
   <v>      -0.32000000       0.12000000       0.04000000 </v>
   <v>      -0.28000000       0.12000000       0.04000000 </v>
   <v>      -0.24000000       0.12000000       0.04000000 </v>
   <v>      -0.20000000       0.12000000       0.04000000 </v>
   <v>      -0.16000000       0.12000000       0.04000000 </v>
   <v>      -0.12000000       0.12000000       0.04000000 </v>
   <v>      -0.08000000       0.12000000       0.04000000 </v>
   <v>       0.20000000       0.16000000       0.04000000 </v>
   <v>       0.24000000       0.16000000       0.04000000 </v>
   <v>       0.28000000       0.16000000       0.04000000 </v>
   <v>       0.32000000       0.16000000       0.04000000 </v>
   <v>       0.36000000       0.16000000       0.04000000 </v>
   <v>       0.40000000       0.16000000       0.04000000 </v>
   <v>       0.44000000       0.16000000       0.04000000 </v>
   <v>       0.48000000       0.16000000       0.04000000 </v>
   <v>      -0.48000000       0.16000000       0.04000000 </v>
   <v>      -0.44000000       0.16000000       0.04000000 </v>
   <v>      -0.40000000       0.16000000       0.04000000 </v>
   <v>      -0.36000000       0.16000000       0.04000000 </v>
   <v>      -0.32000000       0.16000000       0.04000000 </v>
   <v>      -0.28000000       0.16000000       0.04000000 </v>
   <v>      -0.24000000       0.16000000       0.04000000 </v>
   <v>      -0.20000000       0.16000000       0.04000000 </v>
   <v>      -0.16000000       0.16000000       0.04000000 </v>
   <v>      -0.12000000       0.16000000       0.04000000 </v>
   <v>       0.24000000       0.20000000       0.04000000 </v>
   <v>       0.28000000       0.20000000       0.04000000 </v>
   <v>       0.32000000       0.20000000       0.04000000 </v>
   <v>       0.36000000       0.20000000       0.04000000 </v>
   <v>       0.40000000       0.20000000       0.04000000 </v>
   <v>       0.44000000       0.20000000       0.04000000 </v>
   <v>       0.48000000       0.20000000       0.04000000 </v>
   <v>      -0.48000000       0.20000000       0.04000000 </v>
   <v>      -0.44000000       0.20000000       0.04000000 </v>
   <v>      -0.40000000       0.20000000       0.04000000 </v>
   <v>      -0.36000000       0.20000000       0.04000000 </v>
   <v>      -0.32000000       0.20000000       0.04000000 </v>
   <v>      -0.28000000       0.20000000       0.04000000 </v>
   <v>      -0.24000000       0.20000000       0.04000000 </v>
   <v>      -0.20000000       0.20000000       0.04000000 </v>
   <v>      -0.16000000       0.20000000       0.04000000 </v>
   <v>       0.28000000       0.24000000       0.04000000 </v>
   <v>       0.32000000       0.24000000       0.04000000 </v>
   <v>       0.36000000       0.24000000       0.04000000 </v>
   <v>       0.40000000       0.24000000       0.04000000 </v>
   <v>       0.44000000       0.24000000       0.04000000 </v>
   <v>       0.48000000       0.24000000       0.04000000 </v>
   <v>      -0.48000000       0.24000000       0.04000000 </v>
   <v>      -0.44000000       0.24000000       0.04000000 </v>
   <v>      -0.40000000       0.24000000       0.04000000 </v>
   <v>      -0.36000000       0.24000000       0.04000000 </v>
   <v>      -0.32000000       0.24000000       0.04000000 </v>
   <v>      -0.28000000       0.24000000       0.04000000 </v>
   <v>      -0.24000000       0.24000000       0.04000000 </v>
   <v>      -0.20000000       0.24000000       0.04000000 </v>
   <v>       0.32000000       0.28000000       0.04000000 </v>
   <v>       0.36000000       0.28000000       0.04000000 </v>
   <v>       0.40000000       0.28000000       0.04000000 </v>
   <v>       0.44000000       0.28000000       0.04000000 </v>
   <v>       0.48000000       0.28000000       0.04000000 </v>
   <v>      -0.48000000       0.28000000       0.04000000 </v>
   <v>      -0.44000000       0.28000000       0.04000000 </v>
   <v>      -0.40000000       0.28000000       0.04000000 </v>
   <v>      -0.36000000       0.28000000       0.04000000 </v>
   <v>      -0.32000000       0.28000000       0.04000000 </v>
   <v>      -0.28000000       0.28000000       0.04000000 </v>
   <v>      -0.24000000       0.28000000       0.04000000 </v>
   <v>       0.36000000       0.32000000       0.04000000 </v>
   <v>       0.40000000       0.32000000       0.04000000 </v>
   <v>       0.44000000       0.32000000       0.04000000 </v>
   <v>       0.48000000       0.32000000       0.04000000 </v>
   <v>      -0.48000000       0.32000000       0.04000000 </v>
   <v>      -0.44000000       0.32000000       0.04000000 </v>
   <v>      -0.40000000       0.32000000       0.04000000 </v>
   <v>      -0.36000000       0.32000000       0.04000000 </v>
   <v>      -0.32000000       0.32000000       0.04000000 </v>
   <v>      -0.28000000       0.32000000       0.04000000 </v>
   <v>       0.40000000       0.36000000       0.04000000 </v>
   <v>       0.44000000       0.36000000       0.04000000 </v>
   <v>       0.48000000       0.36000000       0.04000000 </v>
   <v>      -0.48000000       0.36000000       0.04000000 </v>
   <v>      -0.44000000       0.36000000       0.04000000 </v>
   <v>      -0.40000000       0.36000000       0.04000000 </v>
   <v>      -0.36000000       0.36000000       0.04000000 </v>
   <v>      -0.32000000       0.36000000       0.04000000 </v>
   <v>       0.44000000       0.40000000       0.04000000 </v>
   <v>       0.48000000       0.40000000       0.04000000 </v>
   <v>      -0.48000000       0.40000000       0.04000000 </v>
   <v>      -0.44000000       0.40000000       0.04000000 </v>
   <v>      -0.40000000       0.40000000       0.04000000 </v>
   <v>      -0.36000000       0.40000000       0.04000000 </v>
   <v>       0.48000000       0.44000000       0.04000000 </v>
   <v>      -0.48000000       0.44000000       0.04000000 </v>
   <v>      -0.44000000       0.44000000       0.04000000 </v>
   <v>      -0.40000000       0.44000000       0.04000000 </v>
   <v>      -0.48000000       0.48000000       0.04000000 </v>
   <v>      -0.44000000       0.48000000       0.04000000 </v>
   <v>       0.24000000       0.16000000       0.08000000 </v>
   <v>       0.28000000       0.16000000       0.08000000 </v>
   <v>       0.32000000       0.16000000       0.08000000 </v>
   <v>       0.36000000       0.16000000       0.08000000 </v>
   <v>       0.40000000       0.16000000       0.08000000 </v>
   <v>       0.44000000       0.16000000       0.08000000 </v>
   <v>       0.48000000       0.16000000       0.08000000 </v>
   <v>      -0.48000000       0.16000000       0.08000000 </v>
   <v>      -0.44000000       0.16000000       0.08000000 </v>
   <v>       0.28000000       0.20000000       0.08000000 </v>
   <v>       0.32000000       0.20000000       0.08000000 </v>
   <v>       0.36000000       0.20000000       0.08000000 </v>
   <v>       0.40000000       0.20000000       0.08000000 </v>
   <v>       0.44000000       0.20000000       0.08000000 </v>
   <v>       0.48000000       0.20000000       0.08000000 </v>
   <v>      -0.48000000       0.20000000       0.08000000 </v>
   <v>      -0.44000000       0.20000000       0.08000000 </v>
   <v>      -0.40000000       0.20000000       0.08000000 </v>
   <v>      -0.36000000       0.20000000       0.08000000 </v>
   <v>      -0.32000000       0.20000000       0.08000000 </v>
   <v>      -0.28000000       0.20000000       0.08000000 </v>
   <v>      -0.24000000       0.20000000       0.08000000 </v>
   <v>      -0.20000000       0.20000000       0.08000000 </v>
   <v>      -0.16000000       0.20000000       0.08000000 </v>
   <v>      -0.12000000       0.20000000       0.08000000 </v>
   <v>       0.32000000       0.24000000       0.08000000 </v>
   <v>       0.36000000       0.24000000       0.08000000 </v>
   <v>       0.40000000       0.24000000       0.08000000 </v>
   <v>       0.44000000       0.24000000       0.08000000 </v>
   <v>       0.48000000       0.24000000       0.08000000 </v>
   <v>      -0.48000000       0.24000000       0.08000000 </v>
   <v>      -0.44000000       0.24000000       0.08000000 </v>
   <v>      -0.40000000       0.24000000       0.08000000 </v>
   <v>      -0.36000000       0.24000000       0.08000000 </v>
   <v>      -0.32000000       0.24000000       0.08000000 </v>
   <v>      -0.28000000       0.24000000       0.08000000 </v>
   <v>      -0.24000000       0.24000000       0.08000000 </v>
   <v>      -0.20000000       0.24000000       0.08000000 </v>
   <v>      -0.16000000       0.24000000       0.08000000 </v>
   <v>       0.36000000       0.28000000       0.08000000 </v>
   <v>       0.40000000       0.28000000       0.08000000 </v>
   <v>       0.44000000       0.28000000       0.08000000 </v>
   <v>       0.48000000       0.28000000       0.08000000 </v>
   <v>      -0.48000000       0.28000000       0.08000000 </v>
   <v>      -0.44000000       0.28000000       0.08000000 </v>
   <v>      -0.40000000       0.28000000       0.08000000 </v>
   <v>      -0.36000000       0.28000000       0.08000000 </v>
   <v>      -0.32000000       0.28000000       0.08000000 </v>
   <v>      -0.28000000       0.28000000       0.08000000 </v>
   <v>      -0.24000000       0.28000000       0.08000000 </v>
   <v>      -0.20000000       0.28000000       0.08000000 </v>
   <v>       0.40000000       0.32000000       0.08000000 </v>
   <v>       0.44000000       0.32000000       0.08000000 </v>
   <v>       0.48000000       0.32000000       0.08000000 </v>
   <v>      -0.48000000       0.32000000       0.08000000 </v>
   <v>      -0.44000000       0.32000000       0.08000000 </v>
   <v>      -0.40000000       0.32000000       0.08000000 </v>
   <v>      -0.36000000       0.32000000       0.08000000 </v>
   <v>      -0.32000000       0.32000000       0.08000000 </v>
   <v>      -0.28000000       0.32000000       0.08000000 </v>
   <v>      -0.24000000       0.32000000       0.08000000 </v>
   <v>       0.44000000       0.36000000       0.08000000 </v>
   <v>       0.48000000       0.36000000       0.08000000 </v>
   <v>      -0.48000000       0.36000000       0.08000000 </v>
   <v>      -0.44000000       0.36000000       0.08000000 </v>
   <v>      -0.40000000       0.36000000       0.08000000 </v>
   <v>      -0.36000000       0.36000000       0.08000000 </v>
   <v>      -0.32000000       0.36000000       0.08000000 </v>
   <v>      -0.28000000       0.36000000       0.08000000 </v>
   <v>       0.48000000       0.40000000       0.08000000 </v>
   <v>      -0.48000000       0.40000000       0.08000000 </v>
   <v>      -0.44000000       0.40000000       0.08000000 </v>
   <v>      -0.40000000       0.40000000       0.08000000 </v>
   <v>      -0.36000000       0.40000000       0.08000000 </v>
   <v>      -0.32000000       0.40000000       0.08000000 </v>
   <v>      -0.48000000       0.44000000       0.08000000 </v>
   <v>      -0.44000000       0.44000000       0.08000000 </v>
   <v>      -0.40000000       0.44000000       0.08000000 </v>
   <v>      -0.36000000       0.44000000       0.08000000 </v>
   <v>      -0.44000000       0.48000000       0.08000000 </v>
   <v>      -0.40000000       0.48000000       0.08000000 </v>
   <v>       0.36000000       0.24000000       0.12000000 </v>
   <v>       0.40000000       0.24000000       0.12000000 </v>
   <v>       0.44000000       0.24000000       0.12000000 </v>
   <v>       0.48000000       0.24000000       0.12000000 </v>
   <v>      -0.48000000       0.24000000       0.12000000 </v>
   <v>      -0.44000000       0.24000000       0.12000000 </v>
   <v>      -0.40000000       0.24000000       0.12000000 </v>
   <v>       0.40000000       0.28000000       0.12000000 </v>
   <v>       0.44000000       0.28000000       0.12000000 </v>
   <v>       0.48000000       0.28000000       0.12000000 </v>
   <v>      -0.48000000       0.28000000       0.12000000 </v>
   <v>      -0.44000000       0.28000000       0.12000000 </v>
   <v>      -0.40000000       0.28000000       0.12000000 </v>
   <v>      -0.36000000       0.28000000       0.12000000 </v>
   <v>      -0.32000000       0.28000000       0.12000000 </v>
   <v>      -0.28000000       0.28000000       0.12000000 </v>
   <v>      -0.24000000       0.28000000       0.12000000 </v>
   <v>      -0.20000000       0.28000000       0.12000000 </v>
   <v>      -0.16000000       0.28000000       0.12000000 </v>
   <v>       0.44000000       0.32000000       0.12000000 </v>
   <v>       0.48000000       0.32000000       0.12000000 </v>
   <v>      -0.48000000       0.32000000       0.12000000 </v>
   <v>      -0.44000000       0.32000000       0.12000000 </v>
   <v>      -0.40000000       0.32000000       0.12000000 </v>
   <v>      -0.36000000       0.32000000       0.12000000 </v>
   <v>      -0.32000000       0.32000000       0.12000000 </v>
   <v>      -0.28000000       0.32000000       0.12000000 </v>
   <v>      -0.24000000       0.32000000       0.12000000 </v>
   <v>      -0.20000000       0.32000000       0.12000000 </v>
   <v>       0.48000000       0.36000000       0.12000000 </v>
   <v>      -0.48000000       0.36000000       0.12000000 </v>
   <v>      -0.44000000       0.36000000       0.12000000 </v>
   <v>      -0.40000000       0.36000000       0.12000000 </v>
   <v>      -0.36000000       0.36000000       0.12000000 </v>
   <v>      -0.32000000       0.36000000       0.12000000 </v>
   <v>      -0.28000000       0.36000000       0.12000000 </v>
   <v>      -0.24000000       0.36000000       0.12000000 </v>
   <v>      -0.48000000       0.40000000       0.12000000 </v>
   <v>      -0.44000000       0.40000000       0.12000000 </v>
   <v>      -0.40000000       0.40000000       0.12000000 </v>
   <v>      -0.36000000       0.40000000       0.12000000 </v>
   <v>      -0.32000000       0.40000000       0.12000000 </v>
   <v>      -0.28000000       0.40000000       0.12000000 </v>
   <v>      -0.44000000       0.44000000       0.12000000 </v>
   <v>      -0.40000000       0.44000000       0.12000000 </v>
   <v>      -0.36000000       0.44000000       0.12000000 </v>
   <v>      -0.32000000       0.44000000       0.12000000 </v>
   <v>      -0.40000000       0.48000000       0.12000000 </v>
   <v>      -0.36000000       0.48000000       0.12000000 </v>
   <v>       0.48000000       0.32000000       0.16000000 </v>
   <v>      -0.48000000       0.32000000       0.16000000 </v>
   <v>      -0.44000000       0.32000000       0.16000000 </v>
   <v>      -0.40000000       0.32000000       0.16000000 </v>
   <v>      -0.36000000       0.32000000       0.16000000 </v>
   <v>      -0.48000000       0.36000000       0.16000000 </v>
   <v>      -0.44000000       0.36000000       0.16000000 </v>
   <v>      -0.40000000       0.36000000       0.16000000 </v>
   <v>      -0.36000000       0.36000000       0.16000000 </v>
   <v>      -0.32000000       0.36000000       0.16000000 </v>
   <v>      -0.28000000       0.36000000       0.16000000 </v>
   <v>      -0.24000000       0.36000000       0.16000000 </v>
   <v>      -0.20000000       0.36000000       0.16000000 </v>
   <v>      -0.44000000       0.40000000       0.16000000 </v>
   <v>      -0.40000000       0.40000000       0.16000000 </v>
   <v>      -0.36000000       0.40000000       0.16000000 </v>
   <v>      -0.32000000       0.40000000       0.16000000 </v>
   <v>      -0.28000000       0.40000000       0.16000000 </v>
   <v>      -0.24000000       0.40000000       0.16000000 </v>
   <v>      -0.40000000       0.44000000       0.16000000 </v>
   <v>      -0.36000000       0.44000000       0.16000000 </v>
   <v>      -0.32000000       0.44000000       0.16000000 </v>
   <v>      -0.28000000       0.44000000       0.16000000 </v>
   <v>      -0.36000000       0.48000000       0.16000000 </v>
   <v>      -0.32000000       0.48000000       0.16000000 </v>
   <v>      -0.40000000       0.40000000       0.20000000 </v>
   <v>      -0.36000000       0.40000000       0.20000000 </v>
   <v>      -0.32000000       0.40000000       0.20000000 </v>
   <v>      -0.36000000       0.44000000       0.20000000 </v>
   <v>      -0.32000000       0.44000000       0.20000000 </v>
   <v>      -0.28000000       0.44000000       0.20000000 </v>
   <v>      -0.24000000       0.44000000       0.20000000 </v>
   <v>      -0.32000000       0.48000000       0.20000000 </v>
   <v>      -0.28000000       0.48000000       0.20000000 </v>
   <v>      -0.28000000       0.48000000       0.24000000 </v>
  </varray>
  <varray name="weights" >
   <v>       0.00006400 </v>
   <v>       0.00051200 </v>
   <v>       0.00051200 </v>
   <v>       0.00051200 </v>
   <v>       0.00051200 </v>
   <v>       0.00051200 </v>
   <v>       0.00051200 </v>
   <v>       0.00051200 </v>
   <v>       0.00051200 </v>
   <v>       0.00051200 </v>
   <v>       0.00051200 </v>
   <v>       0.00051200 </v>
   <v>       0.00051200 </v>
   <v>       0.00038400 </v>
   <v>       0.00153600 </v>
   <v>       0.00153600 </v>
   <v>       0.00153600 </v>
   <v>       0.00153600 </v>
   <v>       0.00153600 </v>
   <v>       0.00153600 </v>
   <v>       0.00153600 </v>
   <v>       0.00153600 </v>
   <v>       0.00153600 </v>
   <v>       0.00153600 </v>
   <v>       0.00153600 </v>
   <v>       0.00153600 </v>
   <v>       0.00153600 </v>
   <v>       0.00153600 </v>
   <v>       0.00153600 </v>
   <v>       0.00153600 </v>
   <v>       0.00153600 </v>
   <v>       0.00153600 </v>
   <v>       0.00153600 </v>
   <v>       0.00153600 </v>
   <v>       0.00153600 </v>
   <v>       0.00153600 </v>
   <v>       0.00076800 </v>
   <v>       0.00038400 </v>
   <v>       0.00153600 </v>
   <v>       0.00153600 </v>
   <v>       0.00153600 </v>
   <v>       0.00153600 </v>
   <v>       0.00153600 </v>
   <v>       0.00153600 </v>
   <v>       0.00153600 </v>
   <v>       0.00153600 </v>
   <v>       0.00153600 </v>
   <v>       0.00153600 </v>
   <v>       0.00153600 </v>
   <v>       0.00153600 </v>
   <v>       0.00153600 </v>
   <v>       0.00153600 </v>
   <v>       0.00153600 </v>
   <v>       0.00153600 </v>
   <v>       0.00153600 </v>
   <v>       0.00153600 </v>
   <v>       0.00153600 </v>
   <v>       0.00153600 </v>
   <v>       0.00076800 </v>
   <v>       0.00038400 </v>
   <v>       0.00153600 </v>
   <v>       0.00153600 </v>
   <v>       0.00153600 </v>
   <v>       0.00153600 </v>
   <v>       0.00153600 </v>
   <v>       0.00153600 </v>
   <v>       0.00153600 </v>
   <v>       0.00153600 </v>
   <v>       0.00153600 </v>
   <v>       0.00153600 </v>
   <v>       0.00153600 </v>
   <v>       0.00153600 </v>
   <v>       0.00153600 </v>
   <v>       0.00153600 </v>
   <v>       0.00153600 </v>
   <v>       0.00153600 </v>
   <v>       0.00153600 </v>
   <v>       0.00153600 </v>
   <v>       0.00076800 </v>
   <v>       0.00038400 </v>
   <v>       0.00153600 </v>
   <v>       0.00153600 </v>
   <v>       0.00153600 </v>
   <v>       0.00153600 </v>
   <v>       0.00153600 </v>
   <v>       0.00153600 </v>
   <v>       0.00153600 </v>
   <v>       0.00153600 </v>
   <v>       0.00153600 </v>
   <v>       0.00153600 </v>
   <v>       0.00153600 </v>
   <v>       0.00153600 </v>
   <v>       0.00153600 </v>
   <v>       0.00153600 </v>
   <v>       0.00153600 </v>
   <v>       0.00153600 </v>
   <v>       0.00076800 </v>
   <v>       0.00038400 </v>
   <v>       0.00153600 </v>
   <v>       0.00153600 </v>
   <v>       0.00153600 </v>
   <v>       0.00153600 </v>
   <v>       0.00153600 </v>
   <v>       0.00153600 </v>
   <v>       0.00153600 </v>
   <v>       0.00153600 </v>
   <v>       0.00153600 </v>
   <v>       0.00153600 </v>
   <v>       0.00153600 </v>
   <v>       0.00153600 </v>
   <v>       0.00153600 </v>
   <v>       0.00153600 </v>
   <v>       0.00076800 </v>
   <v>       0.00038400 </v>
   <v>       0.00153600 </v>
   <v>       0.00153600 </v>
   <v>       0.00153600 </v>
   <v>       0.00153600 </v>
   <v>       0.00153600 </v>
   <v>       0.00153600 </v>
   <v>       0.00153600 </v>
   <v>       0.00153600 </v>
   <v>       0.00153600 </v>
   <v>       0.00153600 </v>
   <v>       0.00153600 </v>
   <v>       0.00153600 </v>
   <v>       0.00076800 </v>
   <v>       0.00038400 </v>
   <v>       0.00153600 </v>
   <v>       0.00153600 </v>
   <v>       0.00153600 </v>
   <v>       0.00153600 </v>
   <v>       0.00153600 </v>
   <v>       0.00153600 </v>
   <v>       0.00153600 </v>
   <v>       0.00153600 </v>
   <v>       0.00153600 </v>
   <v>       0.00153600 </v>
   <v>       0.00076800 </v>
   <v>       0.00038400 </v>
   <v>       0.00153600 </v>
   <v>       0.00153600 </v>
   <v>       0.00153600 </v>
   <v>       0.00153600 </v>
   <v>       0.00153600 </v>
   <v>       0.00153600 </v>
   <v>       0.00153600 </v>
   <v>       0.00153600 </v>
   <v>       0.00076800 </v>
   <v>       0.00038400 </v>
   <v>       0.00153600 </v>
   <v>       0.00153600 </v>
   <v>       0.00153600 </v>
   <v>       0.00153600 </v>
   <v>       0.00153600 </v>
   <v>       0.00153600 </v>
   <v>       0.00076800 </v>
   <v>       0.00038400 </v>
   <v>       0.00153600 </v>
   <v>       0.00153600 </v>
   <v>       0.00153600 </v>
   <v>       0.00153600 </v>
   <v>       0.00076800 </v>
   <v>       0.00038400 </v>
   <v>       0.00153600 </v>
   <v>       0.00153600 </v>
   <v>       0.00076800 </v>
   <v>       0.00038400 </v>
   <v>       0.00076800 </v>
   <v>       0.00153600 </v>
   <v>       0.00307200 </v>
   <v>       0.00307200 </v>
   <v>       0.00307200 </v>
   <v>       0.00307200 </v>
   <v>       0.00307200 </v>
   <v>       0.00307200 </v>
   <v>       0.00307200 </v>
   <v>       0.00307200 </v>
   <v>       0.00307200 </v>
   <v>       0.00307200 </v>
   <v>       0.00153600 </v>
   <v>       0.00307200 </v>
   <v>       0.00307200 </v>
   <v>       0.00307200 </v>
   <v>       0.00307200 </v>
   <v>       0.00307200 </v>
   <v>       0.00307200 </v>
   <v>       0.00307200 </v>
   <v>       0.00307200 </v>
   <v>       0.00307200 </v>
   <v>       0.00307200 </v>
   <v>       0.00307200 </v>
   <v>       0.00307200 </v>
   <v>       0.00307200 </v>
   <v>       0.00307200 </v>
   <v>       0.00307200 </v>
   <v>       0.00307200 </v>
   <v>       0.00307200 </v>
   <v>       0.00307200 </v>
   <v>       0.00153600 </v>
   <v>       0.00153600 </v>
   <v>       0.00307200 </v>
   <v>       0.00307200 </v>
   <v>       0.00307200 </v>
   <v>       0.00307200 </v>
   <v>       0.00307200 </v>
   <v>       0.00307200 </v>
   <v>       0.00307200 </v>
   <v>       0.00307200 </v>
   <v>       0.00307200 </v>
   <v>       0.00307200 </v>
   <v>       0.00307200 </v>
   <v>       0.00307200 </v>
   <v>       0.00307200 </v>
   <v>       0.00307200 </v>
   <v>       0.00307200 </v>
   <v>       0.00307200 </v>
   <v>       0.00153600 </v>
   <v>       0.00153600 </v>
   <v>       0.00307200 </v>
   <v>       0.00307200 </v>
   <v>       0.00307200 </v>
   <v>       0.00307200 </v>
   <v>       0.00307200 </v>
   <v>       0.00307200 </v>
   <v>       0.00307200 </v>
   <v>       0.00307200 </v>
   <v>       0.00307200 </v>
   <v>       0.00307200 </v>
   <v>       0.00307200 </v>
   <v>       0.00307200 </v>
   <v>       0.00307200 </v>
   <v>       0.00307200 </v>
   <v>       0.00153600 </v>
   <v>       0.00153600 </v>
   <v>       0.00307200 </v>
   <v>       0.00307200 </v>
   <v>       0.00307200 </v>
   <v>       0.00307200 </v>
   <v>       0.00307200 </v>
   <v>       0.00307200 </v>
   <v>       0.00307200 </v>
   <v>       0.00307200 </v>
   <v>       0.00307200 </v>
   <v>       0.00307200 </v>
   <v>       0.00307200 </v>
   <v>       0.00307200 </v>
   <v>       0.00153600 </v>
   <v>       0.00153600 </v>
   <v>       0.00307200 </v>
   <v>       0.00307200 </v>
   <v>       0.00307200 </v>
   <v>       0.00307200 </v>
   <v>       0.00307200 </v>
   <v>       0.00307200 </v>
   <v>       0.00307200 </v>
   <v>       0.00307200 </v>
   <v>       0.00307200 </v>
   <v>       0.00307200 </v>
   <v>       0.00153600 </v>
   <v>       0.00153600 </v>
   <v>       0.00307200 </v>
   <v>       0.00307200 </v>
   <v>       0.00307200 </v>
   <v>       0.00307200 </v>
   <v>       0.00307200 </v>
   <v>       0.00307200 </v>
   <v>       0.00307200 </v>
   <v>       0.00307200 </v>
   <v>       0.00153600 </v>
   <v>       0.00153600 </v>
   <v>       0.00307200 </v>
   <v>       0.00307200 </v>
   <v>       0.00307200 </v>
   <v>       0.00307200 </v>
   <v>       0.00307200 </v>
   <v>       0.00307200 </v>
   <v>       0.00153600 </v>
   <v>       0.00153600 </v>
   <v>       0.00307200 </v>
   <v>       0.00307200 </v>
   <v>       0.00307200 </v>
   <v>       0.00307200 </v>
   <v>       0.00153600 </v>
   <v>       0.00153600 </v>
   <v>       0.00307200 </v>
   <v>       0.00307200 </v>
   <v>       0.00153600 </v>
   <v>       0.00153600 </v>
   <v>       0.00153600 </v>
   <v>       0.00153600 </v>
   <v>       0.00307200 </v>
   <v>       0.00307200 </v>
   <v>       0.00307200 </v>
   <v>       0.00307200 </v>
   <v>       0.00307200 </v>
   <v>       0.00307200 </v>
   <v>       0.00307200 </v>
   <v>       0.00307200 </v>
   <v>       0.00153600 </v>
   <v>       0.00307200 </v>
   <v>       0.00307200 </v>
   <v>       0.00307200 </v>
   <v>       0.00307200 </v>
   <v>       0.00307200 </v>
   <v>       0.00307200 </v>
   <v>       0.00307200 </v>
   <v>       0.00307200 </v>
   <v>       0.00307200 </v>
   <v>       0.00307200 </v>
   <v>       0.00307200 </v>
   <v>       0.00307200 </v>
   <v>       0.00307200 </v>
   <v>       0.00307200 </v>
   <v>       0.00153600 </v>
   <v>       0.00153600 </v>
   <v>       0.00307200 </v>
   <v>       0.00307200 </v>
   <v>       0.00307200 </v>
   <v>       0.00307200 </v>
   <v>       0.00307200 </v>
   <v>       0.00307200 </v>
   <v>       0.00307200 </v>
   <v>       0.00307200 </v>
   <v>       0.00307200 </v>
   <v>       0.00307200 </v>
   <v>       0.00307200 </v>
   <v>       0.00307200 </v>
   <v>       0.00153600 </v>
   <v>       0.00153600 </v>
   <v>       0.00307200 </v>
   <v>       0.00307200 </v>
   <v>       0.00307200 </v>
   <v>       0.00307200 </v>
   <v>       0.00307200 </v>
   <v>       0.00307200 </v>
   <v>       0.00307200 </v>
   <v>       0.00307200 </v>
   <v>       0.00307200 </v>
   <v>       0.00307200 </v>
   <v>       0.00153600 </v>
   <v>       0.00153600 </v>
   <v>       0.00307200 </v>
   <v>       0.00307200 </v>
   <v>       0.00307200 </v>
   <v>       0.00307200 </v>
   <v>       0.00307200 </v>
   <v>       0.00307200 </v>
   <v>       0.00307200 </v>
   <v>       0.00307200 </v>
   <v>       0.00153600 </v>
   <v>       0.00153600 </v>
   <v>       0.00307200 </v>
   <v>       0.00307200 </v>
   <v>       0.00307200 </v>
   <v>       0.00307200 </v>
   <v>       0.00307200 </v>
   <v>       0.00307200 </v>
   <v>       0.00153600 </v>
   <v>       0.00153600 </v>
   <v>       0.00307200 </v>
   <v>       0.00307200 </v>
   <v>       0.00307200 </v>
   <v>       0.00307200 </v>
   <v>       0.00153600 </v>
   <v>       0.00153600 </v>
   <v>       0.00307200 </v>
   <v>       0.00307200 </v>
   <v>       0.00153600 </v>
   <v>       0.00153600 </v>
   <v>       0.00153600 </v>
   <v>       0.00153600 </v>
   <v>       0.00307200 </v>
   <v>       0.00307200 </v>
   <v>       0.00307200 </v>
   <v>       0.00307200 </v>
   <v>       0.00307200 </v>
   <v>       0.00307200 </v>
   <v>       0.00153600 </v>
   <v>       0.00307200 </v>
   <v>       0.00307200 </v>
   <v>       0.00307200 </v>
   <v>       0.00307200 </v>
   <v>       0.00307200 </v>
   <v>       0.00307200 </v>
   <v>       0.00307200 </v>
   <v>       0.00307200 </v>
   <v>       0.00307200 </v>
   <v>       0.00307200 </v>
   <v>       0.00153600 </v>
   <v>       0.00153600 </v>
   <v>       0.00307200 </v>
   <v>       0.00307200 </v>
   <v>       0.00307200 </v>
   <v>       0.00307200 </v>
   <v>       0.00307200 </v>
   <v>       0.00307200 </v>
   <v>       0.00307200 </v>
   <v>       0.00307200 </v>
   <v>       0.00153600 </v>
   <v>       0.00153600 </v>
   <v>       0.00307200 </v>
   <v>       0.00307200 </v>
   <v>       0.00307200 </v>
   <v>       0.00307200 </v>
   <v>       0.00307200 </v>
   <v>       0.00307200 </v>
   <v>       0.00153600 </v>
   <v>       0.00153600 </v>
   <v>       0.00307200 </v>
   <v>       0.00307200 </v>
   <v>       0.00307200 </v>
   <v>       0.00307200 </v>
   <v>       0.00153600 </v>
   <v>       0.00153600 </v>
   <v>       0.00307200 </v>
   <v>       0.00307200 </v>
   <v>       0.00153600 </v>
   <v>       0.00153600 </v>
   <v>       0.00153600 </v>
   <v>       0.00153600 </v>
   <v>       0.00307200 </v>
   <v>       0.00307200 </v>
   <v>       0.00307200 </v>
   <v>       0.00307200 </v>
   <v>       0.00153600 </v>
   <v>       0.00307200 </v>
   <v>       0.00307200 </v>
   <v>       0.00307200 </v>
   <v>       0.00307200 </v>
   <v>       0.00307200 </v>
   <v>       0.00307200 </v>
   <v>       0.00153600 </v>
   <v>       0.00153600 </v>
   <v>       0.00307200 </v>
   <v>       0.00307200 </v>
   <v>       0.00307200 </v>
   <v>       0.00307200 </v>
   <v>       0.00153600 </v>
   <v>       0.00153600 </v>
   <v>       0.00307200 </v>
   <v>       0.00307200 </v>
   <v>       0.00153600 </v>
   <v>       0.00153600 </v>
   <v>       0.00153600 </v>
   <v>       0.00153600 </v>
   <v>       0.00307200 </v>
   <v>       0.00307200 </v>
   <v>       0.00153600 </v>
   <v>       0.00307200 </v>
   <v>       0.00307200 </v>
   <v>       0.00153600 </v>
   <v>       0.00153600 </v>
   <v>       0.00153600 </v>
   <v>       0.00153600 </v>
  </varray>
  <varray name="tetrahedronlist"  type="int" >
   <v type="int" >       48        2        3       15       37 </v>
   <v type="int" >       48       15       36       37      170 </v>
   <v type="int" >       24       36       36       37      170 </v>
   <v type="int" >       48        3       15       36       37 </v>
   <v type="int" >       48       36       59      170      171 </v>
   <v type="int" >       48       35       36       59      171 </v>
   <v type="int" >       24       36       36       59      170 </v>
   <v type="int" >       48       35       58      171      172 </v>
   <v type="int" >       48       34       35       58      172 </v>
   <v type="int" >       48       35       58       59      171 </v>
   <v type="int" >       48       34       57      172      173 </v>
   <v type="int" >       48       33       34       57      173 </v>
   <v type="int" >       48       34       57       58      172 </v>
   <v type="int" >       48       33       56      173      174 </v>
   <v type="int" >       48       32       33       56      174 </v>
   <v type="int" >       48       33       56       57      173 </v>
   <v type="int" >       48       32       55      174      175 </v>
   <v type="int" >       48       31       32       55      175 </v>
   <v type="int" >       48       32       55       56      174 </v>
   <v type="int" >       48       31       54      175      176 </v>
   <v type="int" >       48       30       31       54      176 </v>
   <v type="int" >       48       31       54       55      175 </v>
   <v type="int" >       48       30       53      176      177 </v>
   <v type="int" >       48       29       30       53      177 </v>
   <v type="int" >       48       30       53       54      176 </v>
   <v type="int" >       48       29       52      177      178 </v>
   <v type="int" >       48       28       29       52      178 </v>
   <v type="int" >       48       29       52       53      177 </v>
   <v type="int" >       48       28       51      178      179 </v>
   <v type="int" >       48       27       28       51      179 </v>
   <v type="int" >       48       28       51       52      178 </v>
   <v type="int" >       48       27       50      179      180 </v>
   <v type="int" >       48       26       27       50      180 </v>
   <v type="int" >       48       27       50       51      179 </v>
   <v type="int" >       48       26       49      180      180 </v>
   <v type="int" >       48       25       26       49      180 </v>
   <v type="int" >       48       26       49       50      180 </v>
   <v type="int" >       48       25       48      179      180 </v>
   <v type="int" >       48       24       25       48      179 </v>
   <v type="int" >       48       25       48       49      180 </v>
   <v type="int" >       48       24       47      178      179 </v>
   <v type="int" >       48       23       24       47      178 </v>
   <v type="int" >       48       24       47       48      179 </v>
   <v type="int" >       48       23       46      177      178 </v>
   <v type="int" >       48       22       23       46      177 </v>
   <v type="int" >       48       23       46       47      178 </v>
   <v type="int" >       48       22       45      176      177 </v>
   <v type="int" >       48       21       22       45      176 </v>
   <v type="int" >       48       22       45       46      177 </v>
   <v type="int" >       48       21       44      175      176 </v>
   <v type="int" >       48       20       21       44      175 </v>
   <v type="int" >       48       21       44       45      176 </v>
   <v type="int" >       48       20       43      174      175 </v>
   <v type="int" >       48       19       20       43      174 </v>
   <v type="int" >       48       20       43       44      175 </v>
   <v type="int" >       48       19       42      173      174 </v>
   <v type="int" >       48       18       19       42      173 </v>
   <v type="int" >       48       19       42       43      174 </v>
   <v type="int" >       48       18       41      172      173 </v>
   <v type="int" >       48       17       18       41      172 </v>
   <v type="int" >       48       18       41       42      173 </v>
   <v type="int" >       48       17       40      171      172 </v>
   <v type="int" >       48       16       17       40      171 </v>
   <v type="int" >       48       17       40       41      172 </v>
   <v type="int" >       48       16       39      170      171 </v>
   <v type="int" >       48       15       16       39      170 </v>
   <v type="int" >       48       16       39       40      171 </v>
   <v type="int" >       24       15       15       38      170 </v>
   <v type="int" >       24       14       15       15       38 </v>
   <v type="int" >       48       15       38       39      170 </v>
   <v type="int" >       24       14       15       15       37 </v>
   <v type="int" >       48        2       14       15       37 </v>
   <v type="int" >       48       15       16       36      170 </v>
   <v type="int" >       48        3       15       16       36 </v>
   <v type="int" >       48       39      170      171      181 </v>
   <v type="int" >       24      170      171      171      181 </v>
   <v type="int" >       24       59      170      171      171 </v>
   <v type="int" >       48       16       36      170      171 </v>
   <v type="int" >       48      171      181      182      200 </v>
   <v type="int" >       48      171      172      182      200 </v>
   <v type="int" >       48       58      171      172      200 </v>
   <v type="int" >       24      171      171      181      200 </v>
   <v type="int" >       24       59      171      171      200 </v>
   <v type="int" >       48       58       59      171      200 </v>
   <v type="int" >       48      172      182      183      199 </v>
   <v type="int" >       48      172      173      183      199 </v>
   <v type="int" >       48       57      172      173      199 </v>
   <v type="int" >       48      172      182      199      200 </v>
   <v type="int" >       48       58      172      199      200 </v>
   <v type="int" >       48       57       58      172      199 </v>
   <v type="int" >       48      173      183      184      198 </v>
   <v type="int" >       48      173      174      184      198 </v>
   <v type="int" >       48       56      173      174      198 </v>
   <v type="int" >       48      173      183      198      199 </v>
   <v type="int" >       48       57      173      198      199 </v>
   <v type="int" >       48       56       57      173      198 </v>
   <v type="int" >       48      174      184      185      197 </v>
   <v type="int" >       48      174      175      185      197 </v>
   <v type="int" >       48       55      174      175      197 </v>
   <v type="int" >       48      174      184      197      198 </v>
   <v type="int" >       48       56      174      197      198 </v>
   <v type="int" >       48       55       56      174      197 </v>
   <v type="int" >       48      175      185      186      196 </v>
   <v type="int" >       48      175      176      186      196 </v>
   <v type="int" >       48       54      175      176      196 </v>
   <v type="int" >       48      175      185      196      197 </v>
   <v type="int" >       48       55      175      196      197 </v>
   <v type="int" >       48       54       55      175      196 </v>
   <v type="int" >       48      176      186      187      195 </v>
   <v type="int" >       48      176      177      187      195 </v>
   <v type="int" >       48       53      176      177      195 </v>
   <v type="int" >       48      176      186      195      196 </v>
   <v type="int" >       48       54      176      195      196 </v>
   <v type="int" >       48       53       54      176      195 </v>
   <v type="int" >       48      177      187      188      194 </v>
   <v type="int" >       48      177      178      188      194 </v>
   <v type="int" >       48       52      177      178      194 </v>
   <v type="int" >       48      177      187      194      195 </v>
   <v type="int" >       48       53      177      194      195 </v>
   <v type="int" >       48       52       53      177      194 </v>
   <v type="int" >       48      178      188      189      193 </v>
   <v type="int" >       48      178      179      189      193 </v>
   <v type="int" >       48       51      178      179      193 </v>
   <v type="int" >       48      178      188      193      194 </v>
   <v type="int" >       48       52      178      193      194 </v>
   <v type="int" >       48       51       52      178      193 </v>
   <v type="int" >       48      179      189      190      192 </v>
   <v type="int" >       48      179      180      190      192 </v>
   <v type="int" >       48       50      179      180      192 </v>
   <v type="int" >       48      179      189      192      193 </v>
   <v type="int" >       48       51      179      192      193 </v>
   <v type="int" >       48       50       51      179      192 </v>
   <v type="int" >       48      180      190      191      191 </v>
   <v type="int" >       24      180      180      191      191 </v>
   <v type="int" >       48       49      180      180      191 </v>
   <v type="int" >       48      180      190      191      192 </v>
   <v type="int" >       48       50      180      191      192 </v>
   <v type="int" >       48       49       50      180      191 </v>
   <v type="int" >       48       48      179      180      190 </v>
   <v type="int" >       48       49      180      190      191 </v>
   <v type="int" >       48       48       49      180      190 </v>
   <v type="int" >       48       47      178      179      189 </v>
   <v type="int" >       48       48      179      189      190 </v>
   <v type="int" >       48       47       48      179      189 </v>
   <v type="int" >       48       46      177      178      188 </v>
   <v type="int" >       48       47      178      188      189 </v>
   <v type="int" >       48       46       47      178      188 </v>
   <v type="int" >       48       45      176      177      187 </v>
   <v type="int" >       48       46      177      187      188 </v>
   <v type="int" >       48       45       46      177      187 </v>
   <v type="int" >       48       44      175      176      186 </v>
   <v type="int" >       48       45      176      186      187 </v>
   <v type="int" >       48       44       45      176      186 </v>
   <v type="int" >       48       43      174      175      185 </v>
   <v type="int" >       48       44      175      185      186 </v>
   <v type="int" >       48       43       44      175      185 </v>
   <v type="int" >       48       42      173      174      184 </v>
   <v type="int" >       48       43      174      184      185 </v>
   <v type="int" >       48       42       43      174      184 </v>
   <v type="int" >       48       41      172      173      183 </v>
   <v type="int" >       48       42      173      183      184 </v>
   <v type="int" >       48       41       42      173      183 </v>
   <v type="int" >       48       40      171      172      182 </v>
   <v type="int" >       48       41      172      182      183 </v>
   <v type="int" >       48       40       41      172      182 </v>
   <v type="int" >       48       40      171      181      182 </v>
   <v type="int" >       48       39       40      171      181 </v>
   <v type="int" >       24       39       39      170      181 </v>
   <v type="int" >       24       38       39       39      170 </v>
   <v type="int" >       24       15       15       37      170 </v>
   <v type="int" >       48       39       40       61      181 </v>
   <v type="int" >       48       61      181      182      201 </v>
   <v type="int" >       24      181      182      182      201 </v>
   <v type="int" >       24      181      182      182      200 </v>
   <v type="int" >       48       40       61      181      182 </v>
   <v type="int" >       48      182      201      202      291 </v>
   <v type="int" >       48      182      183      202      291 </v>
   <v type="int" >       48      182      183      199      291 </v>
   <v type="int" >       24      182      182      201      291 </v>
   <v type="int" >       24      182      182      200      291 </v>
   <v type="int" >       48      182      199      200      291 </v>
   <v type="int" >       48      183      202      203      292 </v>
   <v type="int" >       48      183      184      203      292 </v>
   <v type="int" >       48      183      184      198      292 </v>
   <v type="int" >       48      183      202      291      292 </v>
   <v type="int" >       48      183      199      291      292 </v>
   <v type="int" >       48      183      198      199      292 </v>
   <v type="int" >       48      184      203      204      293 </v>
   <v type="int" >       48      184      185      204      293 </v>
   <v type="int" >       48      184      185      197      293 </v>
   <v type="int" >       48      184      203      292      293 </v>
   <v type="int" >       48      184      198      292      293 </v>
   <v type="int" >       48      184      197      198      293 </v>
   <v type="int" >       48      185      204      205      294 </v>
   <v type="int" >       48      185      186      205      294 </v>
   <v type="int" >       48      185      186      196      294 </v>
   <v type="int" >       48      185      204      293      294 </v>
   <v type="int" >       48      185      197      293      294 </v>
   <v type="int" >       48      185      196      197      294 </v>
   <v type="int" >       48      186      205      206      295 </v>
   <v type="int" >       48      186      187      206      295 </v>
   <v type="int" >       48      186      187      195      295 </v>
   <v type="int" >       48      186      205      294      295 </v>
   <v type="int" >       48      186      196      294      295 </v>
   <v type="int" >       48      186      195      196      295 </v>
   <v type="int" >       48      187      206      207      296 </v>
   <v type="int" >       48      187      188      207      296 </v>
   <v type="int" >       48      187      188      194      296 </v>
   <v type="int" >       48      187      206      295      296 </v>
   <v type="int" >       48      187      195      295      296 </v>
   <v type="int" >       48      187      194      195      296 </v>
   <v type="int" >       48      188      207      208      297 </v>
   <v type="int" >       48      188      189      208      297 </v>
   <v type="int" >       48      188      189      193      297 </v>
   <v type="int" >       48      188      207      296      297 </v>
   <v type="int" >       48      188      194      296      297 </v>
   <v type="int" >       48      188      193      194      297 </v>
   <v type="int" >       48      189      208      209      298 </v>
   <v type="int" >       48      189      190      209      298 </v>
   <v type="int" >       48      189      190      192      298 </v>
   <v type="int" >       48      189      208      297      298 </v>
   <v type="int" >       48      189      193      297      298 </v>
   <v type="int" >       48      189      192      193      298 </v>
   <v type="int" >       48      190      209      210      299 </v>
   <v type="int" >       48      190      191      210      299 </v>
   <v type="int" >       48      190      191      191      299 </v>
   <v type="int" >       48      190      209      298      299 </v>
   <v type="int" >       48      190      192      298      299 </v>
   <v type="int" >       48      190      191      192      299 </v>
   <v type="int" >       48      191      210      211      299 </v>
   <v type="int" >       48      191      192      211      299 </v>
   <v type="int" >       48      191      210      299      299 </v>
   <v type="int" >       24      191      191      299      299 </v>
   <v type="int" >       48      192      211      212      298 </v>
   <v type="int" >       48      192      193      212      298 </v>
   <v type="int" >       48      192      211      298      299 </v>
   <v type="int" >       48      193      212      213      297 </v>
   <v type="int" >       48      193      194      213      297 </v>
   <v type="int" >       48      193      212      297      298 </v>
   <v type="int" >       48      194      213      214      296 </v>
   <v type="int" >       48      194      195      214      296 </v>
   <v type="int" >       48      194      213      296      297 </v>
   <v type="int" >       48      195      214      215      295 </v>
   <v type="int" >       48      195      196      215      295 </v>
   <v type="int" >       48      195      214      295      296 </v>
   <v type="int" >       48      196      215      216      294 </v>
   <v type="int" >       48      196      197      216      294 </v>
   <v type="int" >       48      196      215      294      295 </v>
   <v type="int" >       48      197      216      217      293 </v>
   <v type="int" >       48      197      198      217      293 </v>
   <v type="int" >       48      197      216      293      294 </v>
   <v type="int" >       48      198      217      218      292 </v>
   <v type="int" >       48      198      199      218      292 </v>
   <v type="int" >       48      198      217      292      293 </v>
   <v type="int" >       24      199      199      218      291 </v>
   <v type="int" >       24      199      199      200      291 </v>
   <v type="int" >       48      199      218      291      292 </v>
   <v type="int" >       48       16       17       35      171 </v>
   <v type="int" >       48       16       35       36      171 </v>
   <v type="int" >       48       61       62       81      201 </v>
   <v type="int" >       48       61       62      182      201 </v>
   <v type="int" >       48       40       61       62      182 </v>
   <v type="int" >       48       81      201      202      219 </v>
   <v type="int" >       24      201      202      202      219 </v>
   <v type="int" >       24      201      202      202      291 </v>
   <v type="int" >       48       62       81      201      202 </v>
   <v type="int" >       48       62      182      201      202 </v>
   <v type="int" >       48      202      219      220      300 </v>
   <v type="int" >       48      202      203      220      300 </v>
   <v type="int" >       48      202      203      292      300 </v>
   <v type="int" >       24      202      202      219      300 </v>
   <v type="int" >       24      202      202      291      300 </v>
   <v type="int" >       48      202      291      292      300 </v>
   <v type="int" >       48      203      220      221      301 </v>
   <v type="int" >       48      203      204      221      301 </v>
   <v type="int" >       48      203      204      293      301 </v>
   <v type="int" >       48      203      220      300      301 </v>
   <v type="int" >       48      203      292      300      301 </v>
   <v type="int" >       48      203      292      293      301 </v>
   <v type="int" >       48      204      221      222      302 </v>
   <v type="int" >       48      204      205      222      302 </v>
   <v type="int" >       48      204      205      294      302 </v>
   <v type="int" >       48      204      221      301      302 </v>
   <v type="int" >       48      204      293      301      302 </v>
   <v type="int" >       48      204      293      294      302 </v>
   <v type="int" >       48      205      222      223      303 </v>
   <v type="int" >       48      205      206      223      303 </v>
   <v type="int" >       48      205      206      295      303 </v>
   <v type="int" >       48      205      222      302      303 </v>
   <v type="int" >       48      205      294      302      303 </v>
   <v type="int" >       48      205      294      295      303 </v>
   <v type="int" >       48      206      223      224      304 </v>
   <v type="int" >       48      206      207      224      304 </v>
   <v type="int" >       48      206      207      296      304 </v>
   <v type="int" >       48      206      223      303      304 </v>
   <v type="int" >       48      206      295      303      304 </v>
   <v type="int" >       48      206      295      296      304 </v>
   <v type="int" >       48      207      224      225      305 </v>
   <v type="int" >       48      207      208      225      305 </v>
   <v type="int" >       48      207      208      297      305 </v>
   <v type="int" >       48      207      224      304      305 </v>
   <v type="int" >       48      207      296      304      305 </v>
   <v type="int" >       48      207      296      297      305 </v>
   <v type="int" >       48      208      225      226      306 </v>
   <v type="int" >       48      208      209      226      306 </v>
   <v type="int" >       48      208      209      298      306 </v>
   <v type="int" >       48      208      225      305      306 </v>
   <v type="int" >       48      208      297      305      306 </v>
   <v type="int" >       48      208      297      298      306 </v>
   <v type="int" >       48      209      226      227      307 </v>
   <v type="int" >       48      209      210      227      307 </v>
   <v type="int" >       48      209      210      299      307 </v>
   <v type="int" >       48      209      226      306      307 </v>
   <v type="int" >       48      209      298      306      307 </v>
   <v type="int" >       48      209      298      299      307 </v>
   <v type="int" >       48      210      227      228      308 </v>
   <v type="int" >       48      210      211      228      308 </v>
   <v type="int" >       48      210      211      299      308 </v>
   <v type="int" >       48      210      227      307      308 </v>
   <v type="int" >       48      210      299      307      308 </v>
   <v type="int" >       48      210      299      299      308 </v>
   <v type="int" >       48      211      228      229      309 </v>
   <v type="int" >       48      211      212      229      309 </v>
   <v type="int" >       48      211      212      298      309 </v>
   <v type="int" >       48      211      228      308      309 </v>
   <v type="int" >       48      211      299      308      309 </v>
   <v type="int" >       48      211      298      299      309 </v>
   <v type="int" >       48      212      229      230      310 </v>
   <v type="int" >       48      212      213      230      310 </v>
   <v type="int" >       48      212      213      297      310 </v>
   <v type="int" >       48      212      229      309      310 </v>
   <v type="int" >       48      212      298      309      310 </v>
   <v type="int" >       48      212      297      298      310 </v>
   <v type="int" >       48      213      230      231      311 </v>
   <v type="int" >       48      213      214      231      311 </v>
   <v type="int" >       48      213      214      296      311 </v>
   <v type="int" >       48      213      230      310      311 </v>
   <v type="int" >       48      213      297      310      311 </v>
   <v type="int" >       48      213      296      297      311 </v>
   <v type="int" >       48      214      231      232      312 </v>
   <v type="int" >       48      214      215      232      312 </v>
   <v type="int" >       48      214      215      295      312 </v>
   <v type="int" >       48      214      231      311      312 </v>
   <v type="int" >       48      214      296      311      312 </v>
   <v type="int" >       48      214      295      296      312 </v>
   <v type="int" >       48      215      232      233      313 </v>
   <v type="int" >       48      215      216      233      313 </v>
   <v type="int" >       48      215      216      294      313 </v>
   <v type="int" >       48      215      232      312      313 </v>
   <v type="int" >       48      215      295      312      313 </v>
   <v type="int" >       48      215      294      295      313 </v>
   <v type="int" >       48      216      233      234      314 </v>
   <v type="int" >       48      216      217      234      314 </v>
   <v type="int" >       48      216      217      293      314 </v>
   <v type="int" >       48      216      233      313      314 </v>
   <v type="int" >       48      216      294      313      314 </v>
   <v type="int" >       48      216      293      294      314 </v>
   <v type="int" >       24      217      217      234      315 </v>
   <v type="int" >       24      217      217      218      315 </v>
   <v type="int" >       48      217      218      292      315 </v>
   <v type="int" >       48      217      234      314      315 </v>
   <v type="int" >       48      217      293      314      315 </v>
   <v type="int" >       48      217      292      293      315 </v>
   <v type="int" >       24      218      292      292      315 </v>
   <v type="int" >       24      218      291      292      292 </v>
   <v type="int" >       48       17       18       34      172 </v>
   <v type="int" >       48       17       34       35      172 </v>
   <v type="int" >       48       17       35      171      172 </v>
   <v type="int" >       48       81       82       99      219 </v>
   <v type="int" >       48       81       82      202      219 </v>
   <v type="int" >       48       62       81       82      202 </v>
   <v type="int" >       48       99      219      220      235 </v>
   <v type="int" >       24      219      220      220      235 </v>
   <v type="int" >       24      219      220      220      300 </v>
   <v type="int" >       48       82       99      219      220 </v>
   <v type="int" >       48       82      202      219      220 </v>
   <v type="int" >       48      220      235      236      316 </v>
   <v type="int" >       48      220      221      236      316 </v>
   <v type="int" >       48      220      221      301      316 </v>
   <v type="int" >       24      220      220      235      316 </v>
   <v type="int" >       24      220      220      300      316 </v>
   <v type="int" >       48      220      300      301      316 </v>
   <v type="int" >       48      221      236      237      317 </v>
   <v type="int" >       48      221      222      237      317 </v>
   <v type="int" >       48      221      222      302      317 </v>
   <v type="int" >       48      221      236      316      317 </v>
   <v type="int" >       48      221      301      316      317 </v>
   <v type="int" >       48      221      301      302      317 </v>
   <v type="int" >       48      222      237      238      318 </v>
   <v type="int" >       48      222      223      238      318 </v>
   <v type="int" >       48      222      223      303      318 </v>
   <v type="int" >       48      222      237      317      318 </v>
   <v type="int" >       48      222      302      317      318 </v>
   <v type="int" >       48      222      302      303      318 </v>
   <v type="int" >       48      223      238      239      319 </v>
   <v type="int" >       48      223      224      239      319 </v>
   <v type="int" >       48      223      224      304      319 </v>
   <v type="int" >       48      223      238      318      319 </v>
   <v type="int" >       48      223      303      318      319 </v>
   <v type="int" >       48      223      303      304      319 </v>
   <v type="int" >       48      224      239      240      320 </v>
   <v type="int" >       48      224      225      240      320 </v>
   <v type="int" >       48      224      225      305      320 </v>
   <v type="int" >       48      224      239      319      320 </v>
   <v type="int" >       48      224      304      319      320 </v>
   <v type="int" >       48      224      304      305      320 </v>
   <v type="int" >       48      225      240      241      321 </v>
   <v type="int" >       48      225      226      241      321 </v>
   <v type="int" >       48      225      226      306      321 </v>
   <v type="int" >       48      225      240      320      321 </v>
   <v type="int" >       48      225      305      320      321 </v>
   <v type="int" >       48      225      305      306      321 </v>
   <v type="int" >       48      226      241      242      322 </v>
   <v type="int" >       48      226      227      242      322 </v>
   <v type="int" >       48      226      227      307      322 </v>
   <v type="int" >       48      226      241      321      322 </v>
   <v type="int" >       48      226      306      321      322 </v>
   <v type="int" >       48      226      306      307      322 </v>
   <v type="int" >       48      227      242      243      323 </v>
   <v type="int" >       48      227      228      243      323 </v>
   <v type="int" >       48      227      228      308      323 </v>
   <v type="int" >       48      227      242      322      323 </v>
   <v type="int" >       48      227      307      322      323 </v>
   <v type="int" >       48      227      307      308      323 </v>
   <v type="int" >       48      228      243      244      324 </v>
   <v type="int" >       48      228      229      244      324 </v>
   <v type="int" >       48      228      229      309      324 </v>
   <v type="int" >       48      228      243      323      324 </v>
   <v type="int" >       48      228      308      323      324 </v>
   <v type="int" >       48      228      308      309      324 </v>
   <v type="int" >       48      229      244      245      325 </v>
   <v type="int" >       48      229      230      245      325 </v>
   <v type="int" >       48      229      230      310      325 </v>
   <v type="int" >       48      229      244      324      325 </v>
   <v type="int" >       48      229      309      324      325 </v>
   <v type="int" >       48      229      309      310      325 </v>
   <v type="int" >       48      230      245      246      326 </v>
   <v type="int" >       48      230      231      246      326 </v>
   <v type="int" >       48      230      231      311      326 </v>
   <v type="int" >       48      230      245      325      326 </v>
   <v type="int" >       48      230      310      325      326 </v>
   <v type="int" >       48      230      310      311      326 </v>
   <v type="int" >       48      231      246      247      327 </v>
   <v type="int" >       48      231      232      247      327 </v>
   <v type="int" >       48      231      232      312      327 </v>
   <v type="int" >       48      231      246      326      327 </v>
   <v type="int" >       48      231      311      326      327 </v>
   <v type="int" >       48      231      311      312      327 </v>
   <v type="int" >       48      232      247      248      328 </v>
   <v type="int" >       48      232      233      248      328 </v>
   <v type="int" >       48      232      233      313      328 </v>
   <v type="int" >       48      232      247      327      328 </v>
   <v type="int" >       48      232      312      327      328 </v>
   <v type="int" >       48      232      312      313      328 </v>
   <v type="int" >       24      233      233      248      329 </v>
   <v type="int" >       24      233      233      234      329 </v>
   <v type="int" >       48      233      234      314      329 </v>
   <v type="int" >       48      233      248      328      329 </v>
   <v type="int" >       48      233      313      328      329 </v>
   <v type="int" >       48      233      313      314      329 </v>
   <v type="int" >       24      234      314      314      329 </v>
   <v type="int" >       24      234      314      314      315 </v>
   <v type="int" >       48       18       19       33      173 </v>
   <v type="int" >       48       18       33       34      173 </v>
   <v type="int" >       48       18       34      172      173 </v>
   <v type="int" >       48       99      100      115      235 </v>
   <v type="int" >       48       99      100      220      235 </v>
   <v type="int" >       48       82       99      100      220 </v>
   <v type="int" >       48      115      235      236      249 </v>
   <v type="int" >       24      235      236      236      249 </v>
   <v type="int" >       24      235      236      236      316 </v>
   <v type="int" >       48      100      115      235      236 </v>
   <v type="int" >       48      100      220      235      236 </v>
   <v type="int" >       48      236      249      250      330 </v>
   <v type="int" >       48      236      237      250      330 </v>
   <v type="int" >       48      236      237      317      330 </v>
   <v type="int" >       24      236      236      249      330 </v>
   <v type="int" >       24      236      236      316      330 </v>
   <v type="int" >       48      236      316      317      330 </v>
   <v type="int" >       48      237      250      251      331 </v>
   <v type="int" >       48      237      238      251      331 </v>
   <v type="int" >       48      237      238      318      331 </v>
   <v type="int" >       48      237      250      330      331 </v>
   <v type="int" >       48      237      317      330      331 </v>
   <v type="int" >       48      237      317      318      331 </v>
   <v type="int" >       48      238      251      252      332 </v>
   <v type="int" >       48      238      239      252      332 </v>
   <v type="int" >       48      238      239      319      332 </v>
   <v type="int" >       48      238      251      331      332 </v>
   <v type="int" >       48      238      318      331      332 </v>
   <v type="int" >       48      238      318      319      332 </v>
   <v type="int" >       48      239      252      253      333 </v>
   <v type="int" >       48      239      240      253      333 </v>
   <v type="int" >       48      239      240      320      333 </v>
   <v type="int" >       48      239      252      332      333 </v>
   <v type="int" >       48      239      319      332      333 </v>
   <v type="int" >       48      239      319      320      333 </v>
   <v type="int" >       48      240      253      254      334 </v>
   <v type="int" >       48      240      241      254      334 </v>
   <v type="int" >       48      240      241      321      334 </v>
   <v type="int" >       48      240      253      333      334 </v>
   <v type="int" >       48      240      320      333      334 </v>
   <v type="int" >       48      240      320      321      334 </v>
   <v type="int" >       48      241      254      255      335 </v>
   <v type="int" >       48      241      242      255      335 </v>
   <v type="int" >       48      241      242      322      335 </v>
   <v type="int" >       48      241      254      334      335 </v>
   <v type="int" >       48      241      321      334      335 </v>
   <v type="int" >       48      241      321      322      335 </v>
   <v type="int" >       48      242      255      256      336 </v>
   <v type="int" >       48      242      243      256      336 </v>
   <v type="int" >       48      242      243      323      336 </v>
   <v type="int" >       48      242      255      335      336 </v>
   <v type="int" >       48      242      322      335      336 </v>
   <v type="int" >       48      242      322      323      336 </v>
   <v type="int" >       48      243      256      257      337 </v>
   <v type="int" >       48      243      244      257      337 </v>
   <v type="int" >       48      243      244      324      337 </v>
   <v type="int" >       48      243      256      336      337 </v>
   <v type="int" >       48      243      323      336      337 </v>
   <v type="int" >       48      243      323      324      337 </v>
   <v type="int" >       48      244      257      258      338 </v>
[...]
       <r>   14.2426    1.0000 </r>
       <r>   17.0203    0.0000 </r>
       <r>   22.8733    0.0000 </r>
       <r>   36.1800    0.0000 </r>
      </set>
      <set comment="kpoint 439">
       <r>   10.7935    1.0000 </r>
       <r>   15.0597    1.0135 </r>
       <r>   17.4135    0.0000 </r>
       <r>   23.3248    0.0000 </r>
       <r>   36.9493    0.0000 </r>
      </set>
      <set comment="kpoint 440">
       <r>   10.8995    1.0000 </r>
       <r>   16.2730    0.0419 </r>
       <r>   16.8636    0.0000 </r>
       <r>   22.7218    0.0000 </r>
       <r>   32.5056    0.0000 </r>
      </set>
      <set comment="kpoint 441">
       <r>   11.9712    1.0000 </r>
       <r>   15.3242    0.9813 </r>
       <r>   16.3683   -0.0025 </r>
       <r>   22.3153    0.0000 </r>
       <r>   33.5696    0.0000 </r>
      </set>
      <set comment="kpoint 442">
       <r>   12.9985    1.0000 </r>
       <r>   14.2367    1.0000 </r>
       <r>   16.1273   -0.0169 </r>
       <r>   22.2324    0.0000 </r>
       <r>   34.5060    0.0000 </r>
      </set>
      <set comment="kpoint 443">
       <r>   12.9878    1.0000 </r>
       <r>   13.9340    1.0000 </r>
       <r>   16.2586   -0.0091 </r>
       <r>   22.4326    0.0000 </r>
       <r>   35.3585    0.0000 </r>
      </set>
      <set comment="kpoint 444">
       <r>   12.3926    1.0000 </r>
       <r>   14.6820    1.0224 </r>
       <r>   16.7160   -0.0025 </r>
       <r>   22.4189    0.0000 </r>
       <r>   32.3745    0.0000 </r>
      </set>
      <set comment="kpoint 445">
       <r>   13.0966    1.0000 </r>
       <r>   14.3227    1.0000 </r>
       <r>   16.1404   -0.0288 </r>
       <r>   22.1433    0.0000 </r>
       <r>   33.5037    0.0000 </r>
      </set>
      <set comment="kpoint 446">
       <r>   10.0227    1.0000 </r>
       <r>   16.0415    0.2085 </r>
       <r>   17.7790    0.0000 </r>
       <r>   23.1336    0.0000 </r>
       <r>   35.3088    0.0000 </r>
      </set>
      <set comment="kpoint 447">
       <r>   11.1332    1.0000 </r>
       <r>   15.1006    1.0302 </r>
       <r>   17.2913    0.0000 </r>
       <r>   22.6431    0.0000 </r>
       <r>   36.3825    0.0000 </r>
      </set>
      <set comment="kpoint 448">
       <r>   12.1863    1.0000 </r>
       <r>   14.0301    1.0000 </r>
       <r>   17.1535    0.0000 </r>
       <r>   22.3914    0.0000 </r>
       <r>   37.2974    0.0000 </r>
      </set>
      <set comment="kpoint 449">
       <r>   11.5167    1.0000 </r>
       <r>   15.7508    0.7192 </r>
       <r>   16.4014   -0.0023 </r>
       <r>   22.2032    0.0000 </r>
       <r>   35.0541    0.0000 </r>
      </set>
      <set comment="kpoint 450">
       <r>   12.6062    1.0000 </r>
       <r>   14.7872    1.0003 </r>
       <r>   16.0856    0.0104 </r>
       <r>   21.8580    0.0000 </r>
       <r>   36.1940    0.0000 </r>
      </set>
      <set comment="kpoint 451">
       <r>   13.1881    1.0000 </r>
       <r>   14.1239    1.0000 </r>
       <r>   16.0660    0.0440 </r>
       <r>   21.8282    0.0000 </r>
       <r>   37.1845    0.0000 </r>
      </set>
      <set comment="kpoint 452">
       <r>   12.2331    1.0000 </r>
       <r>   14.7731    1.0002 </r>
       <r>   16.3803   -0.0149 </r>
       <r>   22.0985    0.0000 </r>
       <r>   37.7647    0.0000 </r>
      </set>
      <set comment="kpoint 453">
       <r>   12.9911    1.0000 </r>
       <r>   14.9616    1.0004 </r>
       <r>   15.6056    0.3605 </r>
       <r>   21.7594    0.0000 </r>
       <r>   34.9250    0.0000 </r>
      </set>
      <set comment="kpoint 454">
       <r>   13.7922    1.0000 </r>
       <r>   14.2385    1.0000 </r>
       <r>   15.4245    0.7518 </r>
       <r>   21.6027    0.0000 </r>
       <r>   36.1301    0.0000 </r>
      </set>
      <set comment="kpoint 455">
       <r>   13.6698    1.0000 </r>
       <r>   14.6298    1.0000 </r>
       <r>   15.1664    0.9821 </r>
       <r>   21.4625    0.0000 </r>
       <r>   37.6409    0.0000 </r>
      </set>
     </set>
    </set>
   </array>
  </eigenvalues>
  <separator name="orbital magnetization" >
   <v name="MAGDIPOLOUT">      0.00000000      0.00000000      0.00000000</v>
  </separator>
  <dos>
   <i name="efermi">     15.71000217 </i>
   <total>
    <array>
     <dimension dim="1">gridpoints</dimension>
     <dimension dim="2">spin</dimension>
     <field>energy</field>
     <field>total</field>
     <field>integrated</field>
     <set>
      <set comment="spin 1">
       <r>    -1.9655     0.0000     0.0000 </r>
       <r>    -1.8235     0.0000     0.0000 </r>
       <r>    -1.6816     0.0000     0.0000 </r>
       <r>    -1.5397     0.0000     0.0000 </r>
       <r>    -1.3977     0.0000     0.0000 </r>
       <r>    -1.2558     0.0000     0.0000 </r>
       <r>    -1.1139     0.0000     0.0000 </r>
       <r>    -0.9719     0.0000     0.0000 </r>
       <r>    -0.8300     0.0000     0.0000 </r>
       <r>    -0.6880     0.0000     0.0000 </r>
       <r>    -0.5461     0.0000     0.0000 </r>
       <r>    -0.4042     0.0000     0.0000 </r>
       <r>    -0.2622     0.0000     0.0000 </r>
       <r>    -0.1203     0.0000     0.0000 </r>
       <r>     0.0216     0.0000     0.0000 </r>
       <r>     0.1636     0.0237     0.0015 </r>
       <r>     0.3055     0.0312     0.0053 </r>
       <r>     0.4474     0.0409     0.0104 </r>
       <r>     0.5894     0.0464     0.0166 </r>
       <r>     0.7313     0.0536     0.0237 </r>
       <r>     0.8732     0.0581     0.0316 </r>
       <r>     1.0152     0.0632     0.0402 </r>
       <r>     1.1571     0.0684     0.0496 </r>
       <r>     1.2991     0.0722     0.0595 </r>
       <r>     1.4410     0.0765     0.0701 </r>
       <r>     1.5829     0.0812     0.0813 </r>
       <r>     1.7249     0.0845     0.0930 </r>
       <r>     1.8668     0.0881     0.1053 </r>
       <r>     2.0087     0.0919     0.1180 </r>
       <r>     2.1507     0.0958     0.1314 </r>
       <r>     2.2926     0.0988     0.1452 </r>
       <r>     2.4345     0.1020     0.1594 </r>
       <r>     2.5765     0.1054     0.1741 </r>
       <r>     2.7184     0.1089     0.1894 </r>
       <r>     2.8603     0.1119     0.2050 </r>
       <r>     3.0023     0.1148     0.2211 </r>
       <r>     3.1442     0.1178     0.2376 </r>
       <r>     3.2862     0.1208     0.2546 </r>
       <r>     3.4281     0.1241     0.2719 </r>
       <r>     3.5700     0.1268     0.2897 </r>
       <r>     3.7120     0.1295     0.3079 </r>
       <r>     3.8539     0.1323     0.3265 </r>
       <r>     3.9958     0.1352     0.3455 </r>
       <r>     4.1378     0.1381     0.3649 </r>
       <r>     4.2797     0.1409     0.3847 </r>
       <r>     4.4216     0.1435     0.4049 </r>
       <r>     4.5636     0.1461     0.4254 </r>
       <r>     4.7055     0.1488     0.4464 </r>
       <r>     4.8474     0.1515     0.4677 </r>
       <r>     4.9894     0.1543     0.4894 </r>
       <r>     5.1313     0.1570     0.5115 </r>
       <r>     5.2733     0.1595     0.5339 </r>
       <r>     5.4152     0.1621     0.5568 </r>
       <r>     5.5571     0.1647     0.5799 </r>
       <r>     5.6991     0.1673     0.6035 </r>
       <r>     5.8410     0.1700     0.6274 </r>
       <r>     5.9829     0.1728     0.6518 </r>
       <r>     6.1249     0.1753     0.6765 </r>
       <r>     6.2668     0.1779     0.7015 </r>
       <r>     6.4087     0.1805     0.7270 </r>
       <r>     6.5507     0.1832     0.7528 </r>
       <r>     6.6926     0.1859     0.7790 </r>
       <r>     6.8345     0.1887     0.8056 </r>
       <r>     6.9765     0.1916     0.8326 </r>
       <r>     7.1184     0.1944     0.8599 </r>
       <r>     7.2604     0.1972     0.8877 </r>
       <r>     7.4023     0.2002     0.9159 </r>
       <r>     7.5442     0.2033     0.9446 </r>
       <r>     7.6862     0.2066     0.9737 </r>
       <r>     7.8281     0.2102     1.0032 </r>
       <r>     7.9700     0.2140     1.0333 </r>
       <r>     8.1120     0.2183     1.0640 </r>
       <r>     8.2539     0.2232     1.0953 </r>
       <r>     8.3958     0.2297     1.1274 </r>
       <r>     8.5378     0.2393     1.1606 </r>
       <r>     8.6797     0.2582     1.1957 </r>
       <r>     8.8216     0.2535     1.2330 </r>
       <r>     8.9636     0.2677     1.2687 </r>
       <r>     9.1055     0.2588     1.3050 </r>
       <r>     9.2474     0.2395     1.3398 </r>
       <r>     9.3894     0.2331     1.3732 </r>
       <r>     9.5313     0.2427     1.4068 </r>
       <r>     9.6733     0.2266     1.4397 </r>
       <r>     9.8152     0.2235     1.4717 </r>
       <r>     9.9571     0.2142     1.5028 </r>
       <r>    10.0991     0.2090     1.5328 </r>
       <r>    10.2410     0.2082     1.5623 </r>
       <r>    10.3829     0.2055     1.5917 </r>
       <r>    10.5249     0.1954     1.6202 </r>
       <r>    10.6668     0.1972     1.6477 </r>
       <r>    10.8087     0.2094     1.6768 </r>
       <r>    10.9507     0.2346     1.7076 </r>
       <r>    11.0926     0.2237     1.7397 </r>
       <r>    11.2345     0.2362     1.7722 </r>
       <r>    11.3765     0.2457     1.8070 </r>
       <r>    11.5184     0.2585     1.8430 </r>
       <r>    11.6604     0.2597     1.8796 </r>
       <r>    11.8023     0.2602     1.9166 </r>
       <r>    11.9442     0.2623     1.9537 </r>
       <r>    12.0862     0.2571     1.9906 </r>
       <r>    12.2281     0.2524     2.0264 </r>
       <r>    12.3700     0.2441     2.0617 </r>
       <r>    12.5120     0.2527     2.0969 </r>
       <r>    12.6539     0.2435     2.1322 </r>
       <r>    12.7958     0.2262     2.1655 </r>
       <r>    12.9378     0.2153     2.1967 </r>
       <r>    13.0797     0.2293     2.2285 </r>
       <r>    13.2216     0.2226     2.2601 </r>
       <r>    13.3636     0.3125     2.2948 </r>
       <r>    13.5055     0.2945     2.3360 </r>
       <r>    13.6475     0.3346     2.3810 </r>
       <r>    13.7894     0.3266     2.4279 </r>
       <r>    13.9313     0.3516     2.4756 </r>
       <r>    14.0733     0.3752     2.5274 </r>
       <r>    14.2152     0.3578     2.5792 </r>
       <r>    14.3571     0.3463     2.6293 </r>
       <r>    14.4991     0.3245     2.6766 </r>
       <r>    14.6410     0.3007     2.7215 </r>
       <r>    14.7829     0.2892     2.7633 </r>
       <r>    14.9249     0.2702     2.8026 </r>
       <r>    15.0668     0.2608     2.8403 </r>
       <r>    15.2087     0.2545     2.8766 </r>
       <r>    15.3507     0.2491     2.9122 </r>
       <r>    15.4926     0.2445     2.9474 </r>
       <r>    15.6346     0.2413     2.9818 </r>
       <r>    15.7765     0.2403     3.0160 </r>
       <r>    15.9184     0.2411     3.0501 </r>
       <r>    16.0604     0.2421     3.0846 </r>
       <r>    16.2023     0.2514     3.1194 </r>
       <r>    16.3442     0.2518     3.1549 </r>
       <r>    16.4862     0.2680     3.1917 </r>
       <r>    16.6281     0.3220     3.2342 </r>
       <r>    16.7700     0.3227     3.2798 </r>
       <r>    16.9120     0.3226     3.3258 </r>
       <r>    17.0539     0.3196     3.3712 </r>
       <r>    17.1958     0.3179     3.4163 </r>
       <r>    17.3378     0.3197     3.4616 </r>
       <r>    17.4797     0.3193     3.5070 </r>
       <r>    17.6217     0.3169     3.5521 </r>
       <r>    17.7636     0.3128     3.5968 </r>
       <r>    17.9055     0.3137     3.6412 </r>
       <r>    18.0475     0.3123     3.6857 </r>
       <r>    18.1894     0.3105     3.7299 </r>
       <r>    18.3313     0.3063     3.7736 </r>
       <r>    18.4733     0.3048     3.8170 </r>
       <r>    18.6152     0.3033     3.8602 </r>
       <r>    18.7571     0.3005     3.9030 </r>
       <r>    18.8991     0.2991     3.9455 </r>
       <r>    19.0410     0.2960     3.9878 </r>
       <r>    19.1829     0.2934     4.0296 </r>
       <r>    19.3249     0.2923     4.0711 </r>
       <r>    19.4668     0.2918     4.1126 </r>
       <r>    19.6087     0.2863     4.1536 </r>
       <r>    19.7507     0.2825     4.1940 </r>
       <r>    19.8926     0.2796     4.2338 </r>
       <r>    20.0346     0.2774     4.2734 </r>
       <r>    20.1765     0.2757     4.3126 </r>
       <r>    20.3184     0.2735     4.3516 </r>
       <r>    20.4604     0.2703     4.3902 </r>
       <r>    20.6023     0.2670     4.4283 </r>
       <r>    20.7442     0.2640     4.4660 </r>
       <r>    20.8862     0.2582     4.5031 </r>
       <r>    21.0281     0.2508     4.5392 </r>
       <r>    21.1700     0.2421     4.5742 </r>
       <r>    21.3120     0.2383     4.6082 </r>
       <r>    21.4539     0.2347     4.6418 </r>
       <r>    21.5958     0.2535     4.6771 </r>
       <r>    21.7378     0.2599     4.7135 </r>
       <r>    21.8797     0.2618     4.7506 </r>
       <r>    22.0217     0.2658     4.7880 </r>
       <r>    22.1636     0.2706     4.8261 </r>
       <r>    22.3055     0.2740     4.8647 </r>
       <r>    22.4475     0.2783     4.9040 </r>
       <r>    22.5894     0.2807     4.9436 </r>
       <r>    22.7313     0.2837     4.9837 </r>
       <r>    22.8733     0.2885     5.0243 </r>
       <r>    23.0152     0.2937     5.0656 </r>
       <r>    23.1571     0.2971     5.1076 </r>
       <r>    23.2991     0.2993     5.1499 </r>
       <r>    23.4410     0.3047     5.1927 </r>
       <r>    23.5829     0.3106     5.2364 </r>
       <r>    23.7249     0.3156     5.2809 </r>
       <r>    23.8668     0.3210     5.3260 </r>
       <r>    24.0088     0.3253     5.3719 </r>
       <r>    24.1507     0.3313     5.4185 </r>
       <r>    24.2926     0.3377     5.4660 </r>
       <r>    24.4346     0.3457     5.5145 </r>
       <r>    24.5765     0.3535     5.5641 </r>
       <r>    24.7184     0.3607     5.6148 </r>
       <r>    24.8604     0.3736     5.6669 </r>
       <r>    25.0023     0.3922     5.7212 </r>
       <r>    25.1442     0.4124     5.7781 </r>
       <r>    25.2862     0.4370     5.8383 </r>
       <r>    25.4281     0.4602     5.9024 </r>
       <r>    25.5700     0.4521     5.9662 </r>
       <r>    25.7120     0.4456     6.0299 </r>
       <r>    25.8539     0.4422     6.0928 </r>
       <r>    25.9959     0.4412     6.1556 </r>
       <r>    26.1378     0.4357     6.2180 </r>
       <r>    26.2797     0.4321     6.2795 </r>
       <r>    26.4217     0.4314     6.3409 </r>
       <r>    26.5636     0.4294     6.4020 </r>
       <r>    26.7055     0.4267     6.4628 </r>
       <r>    26.8475     0.4257     6.5232 </r>
       <r>    26.9894     0.4271     6.5838 </r>
       <r>    27.1313     0.4255     6.6443 </r>
       <r>    27.2733     0.4215     6.7044 </r>
       <r>    27.4152     0.4158     6.7639 </r>
       <r>    27.5571     0.4154     6.8227 </r>
       <r>    27.6991     0.4171     6.8818 </r>
       <r>    27.8410     0.4155     6.9409 </r>
       <r>    27.9830     0.4166     7.0000 </r>
       <r>    28.1249     0.4168     7.0591 </r>
       <r>    28.2668     0.4138     7.1180 </r>
       <r>    28.4088     0.4144     7.1768 </r>
       <r>    28.5507     0.4154     7.2357 </r>
       <r>    28.6926     0.4134     7.2945 </r>
       <r>    28.8346     0.4089     7.3528 </r>
       <r>    28.9765     0.4080     7.4107 </r>
       <r>    29.1184     0.4096     7.4688 </r>
       <r>    29.2604     0.4111     7.5271 </r>
       <r>    29.4023     0.4089     7.5853 </r>
       <r>    29.5442     0.4033     7.6429 </r>
       <r>    29.6862     0.4011     7.7000 </r>
       <r>    29.8281     0.4018     7.7570 </r>
       <r>    29.9700     0.4031     7.8140 </r>
       <r>    30.1120     0.4014     7.8711 </r>
       <r>    30.2539     0.4001     7.9280 </r>
       <r>    30.3959     0.3964     7.9845 </r>
       <r>    30.5378     0.3835     8.0402 </r>
       <r>    30.6797     0.3585     8.0926 </r>
       <r>    30.8217     0.3475     8.1427 </r>
       <r>    30.9636     0.3426     8.1915 </r>
       <r>    31.1055     0.3373     8.2398 </r>
       <r>    31.2475     0.3343     8.2874 </r>
       <r>    31.3894     0.3323     8.3347 </r>
       <r>    31.5313     0.3299     8.3817 </r>
       <r>    31.6733     0.3290     8.4284 </r>
       <r>    31.8152     0.3316     8.4752 </r>
       <r>    31.9571     0.3301     8.5221 </r>
       <r>    32.0991     0.3296     8.5689 </r>
       <r>    32.2410     0.3495     8.6168 </r>
       <r>    32.3830     0.3533     8.6669 </r>
       <r>    32.5249     0.3239     8.7144 </r>
       <r>    32.6668     0.3069     8.7591 </r>
       <r>    32.8088     0.2965     8.8018 </r>
       <r>    32.9507     0.2913     8.8435 </r>
       <r>    33.0926     0.2880     8.8846 </r>
       <r>    33.2346     0.2857     8.9253 </r>
       <r>    33.3765     0.2839     8.9657 </r>
       <r>    33.5184     0.2833     9.0060 </r>
       <r>    33.6604     0.2832     9.0462 </r>
       <r>    33.8023     0.2842     9.0864 </r>
       <r>    33.9442     0.2866     9.1269 </r>
       <r>    34.0862     0.2928     9.1680 </r>
       <r>    34.2281     0.2925     9.2097 </r>
       <r>    34.3701     0.3034     9.2519 </r>
       <r>    34.5120     0.3191     9.2960 </r>
       <r>    34.6539     0.3433     9.3429 </r>
       <r>    34.7959     0.3770     9.3941 </r>
       <r>    34.9378     0.3955     9.4490 </r>
       <r>    35.0797     0.4048     9.5060 </r>
       <r>    35.2217     0.4241     9.5645 </r>
       <r>    35.3636     0.4325     9.6259 </r>
       <r>    35.5055     0.3825     9.6832 </r>
       <r>    35.6475     0.3295     9.7339 </r>
       <r>    35.7894     0.2921     9.7784 </r>
       <r>    35.9313     0.2448     9.8161 </r>
       <r>    36.0733     0.1949     9.8474 </r>
       <r>    36.2152     0.1564     9.8721 </r>
       <r>    36.3572     0.1324     9.8925 </r>
       <r>    36.4991     0.1050     9.9093 </r>
       <r>    36.6410     0.0881     9.9229 </r>
       <r>    36.7830     0.0764     9.9346 </r>
       <r>    36.9249     0.0623     9.9445 </r>
       <r>    37.0668     0.0543     9.9526 </r>
       <r>    37.2088     0.0540     9.9601 </r>
       <r>    37.3507     0.0408     9.9669 </r>
       <r>    37.4926     0.0343     9.9722 </r>
       <r>    37.6346     0.0268     9.9766 </r>
       <r>    37.7765     0.0238     9.9801 </r>
       <r>    37.9184     0.0224     9.9833 </r>
       <r>    38.0604     0.0235     9.9865 </r>
       <r>    38.2023     0.0265     9.9901 </r>
       <r>    38.3442     0.0279     9.9940 </r>
       <r>    38.4862     0.0281     9.9980 </r>
       <r>    38.6281     0.0000    10.0000 </r>
       <r>    38.7701     0.0000    10.0000 </r>
       <r>    38.9120     0.0000    10.0000 </r>
       <r>    39.0539     0.0000    10.0000 </r>
       <r>    39.1959     0.0000    10.0000 </r>
       <r>    39.3378     0.0000    10.0000 </r>
       <r>    39.4797     0.0000    10.0000 </r>
       <r>    39.6217     0.0000    10.0000 </r>
       <r>    39.7636     0.0000    10.0000 </r>
       <r>    39.9055     0.0000    10.0000 </r>
       <r>    40.0475     0.0000    10.0000 </r>
       <r>    40.1894     0.0000    10.0000 </r>
       <r>    40.3313     0.0000    10.0000 </r>
       <r>    40.4733     0.0000    10.0000 </r>
       <r>    40.6152     0.0000    10.0000 </r>
      </set>
     </set>
    </array>
   </total>
  </dos>
 </calculation>
 <structure name="finalpos" >
  <crystal>
   <varray name="basis" >
    <v>       2.33913090       0.00000000       0.00000000 </v>
    <v>       1.16956545       2.02574678       0.00000000 </v>
    <v>       1.16956545       0.67524893       1.90989238 </v>
   </varray>
   <i name="volume">      9.05000000 </i>
   <varray name="rec_basis" >
    <v>       0.42750921      -0.24682256      -0.17452990 </v>
    <v>       0.00000000       0.49364511      -0.17452990 </v>
    <v>       0.00000000       0.00000000       0.52358971 </v>
   </varray>
  </crystal>
  <varray name="positions" >
   <v>       0.00000000       0.00000000       0.00000000 </v>
  </varray>
 </structure>
</modeling>
