<?xml version="1.0" encoding="ISO-8859-1"?>
<modeling>
 <generator>
  <i name="program" type="string">vasp </i>
  <i name="version" type="string">6.4.2  </i>
  <i name="subversion" type="string">20Jul23 (build Oct 18 2023 12:49:41) complex                          parallel </i>
  <i name="platform" type="string">LinuxGNU </i>
  <i name="date" type="string">2025 04 11 </i>
  <i name="time" type="string">08:06:06 </i>
 </generator>
 <incar>
  <i type="string" name="SYSTEM">Al atom</i>
  <i type="int" name="NSIM">     1</i>
  <i name="ENCUT">    400.00000000</i>
  <i type="int" name="ISMEAR">    -5</i>
  <i type="logical" name="LCHARG"> F  </i>
 </incar>
 <primitive_cell>
  <structure name="primitive_cell" >
   <crystal>
    <varray name="basis" >
     <v>      11.59677000       0.00000000       0.00000000 </v>
     <v>       5.79838500      10.04309742       0.00000000 </v>
     <v>       5.79838500       3.34769914       9.46872305 </v>
    </varray>
    <i name="volume">   1102.79841611 </i>
    <varray name="rec_basis" >
     <v>       0.08623091      -0.04978544      -0.03520362 </v>
     <v>       0.00000000       0.09957088      -0.03520362 </v>
     <v>       0.00000000       0.00000000       0.10561086 </v>
    </varray>
   </crystal>
   <varray name="positions" >
    <v>       0.00000000       0.00000000       0.00000000 </v>
   </varray>
  </structure>
  <varray name="primitive_index" >
   <v type="int" >        1 </v>
  </varray>
 </primitive_cell>
 <kpoints>
  <generation param="Gamma">
   <v type="int" name="divisions">      25       25       25 </v>
   <v name="usershift">      0.00000000       0.00000000       0.00000000 </v>
   <v name="genvec1">      0.04000000      -0.00000000      -0.00000000 </v>
   <v name="genvec2">      0.00000000       0.04000000      -0.00000000 </v>
   <v name="genvec3">      0.00000000       0.00000000       0.04000000 </v>
   <v name="shift">      0.00000000       0.00000000       0.00000000 </v>
  </generation>
  <varray name="kpointlist" >
   <v>       0.00000000       0.00000000       0.00000000 </v>
   <v>       0.04000000       0.00000000       0.00000000 </v>
   <v>       0.08000000       0.00000000       0.00000000 </v>
   <v>       0.12000000       0.00000000       0.00000000 </v>
   <v>       0.16000000       0.00000000       0.00000000 </v>
   <v>       0.20000000       0.00000000       0.00000000 </v>
   <v>       0.24000000       0.00000000       0.00000000 </v>
   <v>       0.28000000       0.00000000       0.00000000 </v>
   <v>       0.32000000       0.00000000       0.00000000 </v>
   <v>       0.36000000       0.00000000       0.00000000 </v>
   <v>       0.40000000       0.00000000       0.00000000 </v>
   <v>       0.44000000       0.00000000       0.00000000 </v>
   <v>       0.48000000       0.00000000       0.00000000 </v>
   <v>       0.04000000       0.04000000       0.00000000 </v>
   <v>       0.08000000       0.04000000       0.00000000 </v>
   <v>       0.12000000       0.04000000       0.00000000 </v>
   <v>       0.16000000       0.04000000       0.00000000 </v>
   <v>       0.20000000       0.04000000       0.00000000 </v>
   <v>       0.24000000       0.04000000       0.00000000 </v>
   <v>       0.28000000       0.04000000       0.00000000 </v>
   <v>       0.32000000       0.04000000       0.00000000 </v>
   <v>       0.36000000       0.04000000       0.00000000 </v>
   <v>       0.40000000       0.04000000       0.00000000 </v>
   <v>       0.44000000       0.04000000       0.00000000 </v>
   <v>       0.48000000       0.04000000       0.00000000 </v>
   <v>      -0.48000000       0.04000000       0.00000000 </v>
   <v>      -0.44000000       0.04000000       0.00000000 </v>
   <v>      -0.40000000       0.04000000       0.00000000 </v>
   <v>      -0.36000000       0.04000000       0.00000000 </v>
   <v>      -0.32000000       0.04000000       0.00000000 </v>
   <v>      -0.28000000       0.04000000       0.00000000 </v>
   <v>      -0.24000000       0.04000000       0.00000000 </v>
   <v>      -0.20000000       0.04000000       0.00000000 </v>
   <v>      -0.16000000       0.04000000       0.00000000 </v>
   <v>      -0.12000000       0.04000000       0.00000000 </v>
   <v>      -0.08000000       0.04000000       0.00000000 </v>
   <v>      -0.04000000       0.04000000       0.00000000 </v>
   <v>       0.08000000       0.08000000       0.00000000 </v>
   <v>       0.12000000       0.08000000       0.00000000 </v>
   <v>       0.16000000       0.08000000       0.00000000 </v>
   <v>       0.20000000       0.08000000       0.00000000 </v>
   <v>       0.24000000       0.08000000       0.00000000 </v>
   <v>       0.28000000       0.08000000       0.00000000 </v>
   <v>       0.32000000       0.08000000       0.00000000 </v>
   <v>       0.36000000       0.08000000       0.00000000 </v>
   <v>       0.40000000       0.08000000       0.00000000 </v>
   <v>       0.44000000       0.08000000       0.00000000 </v>
   <v>       0.48000000       0.08000000       0.00000000 </v>
   <v>      -0.48000000       0.08000000       0.00000000 </v>
   <v>      -0.44000000       0.08000000       0.00000000 </v>
   <v>      -0.40000000       0.08000000       0.00000000 </v>
   <v>      -0.36000000       0.08000000       0.00000000 </v>
   <v>      -0.32000000       0.08000000       0.00000000 </v>
   <v>      -0.28000000       0.08000000       0.00000000 </v>
   <v>      -0.24000000       0.08000000       0.00000000 </v>
   <v>      -0.20000000       0.08000000       0.00000000 </v>
   <v>      -0.16000000       0.08000000       0.00000000 </v>
   <v>      -0.12000000       0.08000000       0.00000000 </v>
   <v>      -0.08000000       0.08000000       0.00000000 </v>
   <v>       0.12000000       0.12000000       0.00000000 </v>
   <v>       0.16000000       0.12000000       0.00000000 </v>
   <v>       0.20000000       0.12000000       0.00000000 </v>
   <v>       0.24000000       0.12000000       0.00000000 </v>
   <v>       0.28000000       0.12000000       0.00000000 </v>
   <v>       0.32000000       0.12000000       0.00000000 </v>
   <v>       0.36000000       0.12000000       0.00000000 </v>
   <v>       0.40000000       0.12000000       0.00000000 </v>
   <v>       0.44000000       0.12000000       0.00000000 </v>
   <v>       0.48000000       0.12000000       0.00000000 </v>
   <v>      -0.48000000       0.12000000       0.00000000 </v>
   <v>      -0.44000000       0.12000000       0.00000000 </v>
   <v>      -0.40000000       0.12000000       0.00000000 </v>
   <v>      -0.36000000       0.12000000       0.00000000 </v>
   <v>      -0.32000000       0.12000000       0.00000000 </v>
   <v>      -0.28000000       0.12000000       0.00000000 </v>
   <v>      -0.24000000       0.12000000       0.00000000 </v>
   <v>      -0.20000000       0.12000000       0.00000000 </v>
   <v>      -0.16000000       0.12000000       0.00000000 </v>
   <v>      -0.12000000       0.12000000       0.00000000 </v>
   <v>       0.16000000       0.16000000       0.00000000 </v>
   <v>       0.20000000       0.16000000       0.00000000 </v>
   <v>       0.24000000       0.16000000       0.00000000 </v>
   <v>       0.28000000       0.16000000       0.00000000 </v>
   <v>       0.32000000       0.16000000       0.00000000 </v>
   <v>       0.36000000       0.16000000       0.00000000 </v>
   <v>       0.40000000       0.16000000       0.00000000 </v>
   <v>       0.44000000       0.16000000       0.00000000 </v>
   <v>       0.48000000       0.16000000       0.00000000 </v>
   <v>      -0.48000000       0.16000000       0.00000000 </v>
   <v>      -0.44000000       0.16000000       0.00000000 </v>
   <v>      -0.40000000       0.16000000       0.00000000 </v>
   <v>      -0.36000000       0.16000000       0.00000000 </v>
   <v>      -0.32000000       0.16000000       0.00000000 </v>
   <v>      -0.28000000       0.16000000       0.00000000 </v>
   <v>      -0.24000000       0.16000000       0.00000000 </v>
   <v>      -0.20000000       0.16000000       0.00000000 </v>
   <v>      -0.16000000       0.16000000       0.00000000 </v>
   <v>       0.20000000       0.20000000       0.00000000 </v>
   <v>       0.24000000       0.20000000       0.00000000 </v>
   <v>       0.28000000       0.20000000       0.00000000 </v>
   <v>       0.32000000       0.20000000       0.00000000 </v>
   <v>       0.36000000       0.20000000       0.00000000 </v>
   <v>       0.40000000       0.20000000       0.00000000 </v>
   <v>       0.44000000       0.20000000       0.00000000 </v>
   <v>       0.48000000       0.20000000       0.00000000 </v>
   <v>      -0.48000000       0.20000000       0.00000000 </v>
   <v>      -0.44000000       0.20000000       0.00000000 </v>
   <v>      -0.40000000       0.20000000       0.00000000 </v>
   <v>      -0.36000000       0.20000000       0.00000000 </v>
   <v>      -0.32000000       0.20000000       0.00000000 </v>
   <v>      -0.28000000       0.20000000       0.00000000 </v>
   <v>      -0.24000000       0.20000000       0.00000000 </v>
   <v>      -0.20000000       0.20000000       0.00000000 </v>
   <v>       0.24000000       0.24000000       0.00000000 </v>
   <v>       0.28000000       0.24000000       0.00000000 </v>
   <v>       0.32000000       0.24000000       0.00000000 </v>
   <v>       0.36000000       0.24000000       0.00000000 </v>
   <v>       0.40000000       0.24000000       0.00000000 </v>
   <v>       0.44000000       0.24000000       0.00000000 </v>
   <v>       0.48000000       0.24000000       0.00000000 </v>
   <v>      -0.48000000       0.24000000       0.00000000 </v>
   <v>      -0.44000000       0.24000000       0.00000000 </v>
   <v>      -0.40000000       0.24000000       0.00000000 </v>
   <v>      -0.36000000       0.24000000       0.00000000 </v>
   <v>      -0.32000000       0.24000000       0.00000000 </v>
   <v>      -0.28000000       0.24000000       0.00000000 </v>
   <v>      -0.24000000       0.24000000       0.00000000 </v>
   <v>       0.28000000       0.28000000       0.00000000 </v>
   <v>       0.32000000       0.28000000       0.00000000 </v>
   <v>       0.36000000       0.28000000       0.00000000 </v>
   <v>       0.40000000       0.28000000       0.00000000 </v>
   <v>       0.44000000       0.28000000       0.00000000 </v>
   <v>       0.48000000       0.28000000       0.00000000 </v>
   <v>      -0.48000000       0.28000000       0.00000000 </v>
   <v>      -0.44000000       0.28000000       0.00000000 </v>
   <v>      -0.40000000       0.28000000       0.00000000 </v>
   <v>      -0.36000000       0.28000000       0.00000000 </v>
   <v>      -0.32000000       0.28000000       0.00000000 </v>
   <v>      -0.28000000       0.28000000       0.00000000 </v>
   <v>       0.32000000       0.32000000       0.00000000 </v>
   <v>       0.36000000       0.32000000       0.00000000 </v>
   <v>       0.40000000       0.32000000       0.00000000 </v>
   <v>       0.44000000       0.32000000       0.00000000 </v>
   <v>       0.48000000       0.32000000       0.00000000 </v>
   <v>      -0.48000000       0.32000000       0.00000000 </v>
   <v>      -0.44000000       0.32000000       0.00000000 </v>
   <v>      -0.40000000       0.32000000       0.00000000 </v>
   <v>      -0.36000000       0.32000000       0.00000000 </v>
   <v>      -0.32000000       0.32000000       0.00000000 </v>
   <v>       0.36000000       0.36000000       0.00000000 </v>
   <v>       0.40000000       0.36000000       0.00000000 </v>
   <v>       0.44000000       0.36000000       0.00000000 </v>
   <v>       0.48000000       0.36000000       0.00000000 </v>
   <v>      -0.48000000       0.36000000       0.00000000 </v>
   <v>      -0.44000000       0.36000000       0.00000000 </v>
   <v>      -0.40000000       0.36000000       0.00000000 </v>
   <v>      -0.36000000       0.36000000       0.00000000 </v>
   <v>       0.40000000       0.40000000       0.00000000 </v>
   <v>       0.44000000       0.40000000       0.00000000 </v>
   <v>       0.48000000       0.40000000       0.00000000 </v>
   <v>      -0.48000000       0.40000000       0.00000000 </v>
   <v>      -0.44000000       0.40000000       0.00000000 </v>
   <v>      -0.40000000       0.40000000       0.00000000 </v>
   <v>       0.44000000       0.44000000       0.00000000 </v>
   <v>       0.48000000       0.44000000       0.00000000 </v>
   <v>      -0.48000000       0.44000000       0.00000000 </v>
   <v>      -0.44000000       0.44000000       0.00000000 </v>
   <v>       0.48000000       0.48000000       0.00000000 </v>
   <v>      -0.48000000       0.48000000       0.00000000 </v>
   <v>       0.12000000       0.08000000       0.04000000 </v>
   <v>       0.16000000       0.08000000       0.04000000 </v>
   <v>       0.20000000       0.08000000       0.04000000 </v>
   <v>       0.24000000       0.08000000       0.04000000 </v>
   <v>       0.28000000       0.08000000       0.04000000 </v>
   <v>       0.32000000       0.08000000       0.04000000 </v>
   <v>       0.36000000       0.08000000       0.04000000 </v>
   <v>       0.40000000       0.08000000       0.04000000 </v>
   <v>       0.44000000       0.08000000       0.04000000 </v>
   <v>       0.48000000       0.08000000       0.04000000 </v>
   <v>      -0.48000000       0.08000000       0.04000000 </v>
   <v>       0.16000000       0.12000000       0.04000000 </v>
   <v>       0.20000000       0.12000000       0.04000000 </v>
   <v>       0.24000000       0.12000000       0.04000000 </v>
   <v>       0.28000000       0.12000000       0.04000000 </v>
   <v>       0.32000000       0.12000000       0.04000000 </v>
   <v>       0.36000000       0.12000000       0.04000000 </v>
   <v>       0.40000000       0.12000000       0.04000000 </v>
   <v>       0.44000000       0.12000000       0.04000000 </v>
   <v>       0.48000000       0.12000000       0.04000000 </v>
   <v>      -0.48000000       0.12000000       0.04000000 </v>
   <v>      -0.44000000       0.12000000       0.04000000 </v>
   <v>      -0.40000000       0.12000000       0.04000000 </v>
   <v>      -0.36000000       0.12000000       0.04000000 </v>
   <v>      -0.32000000       0.12000000       0.04000000 </v>
   <v>      -0.28000000       0.12000000       0.04000000 </v>
   <v>      -0.24000000       0.12000000       0.04000000 </v>
   <v>      -0.20000000       0.12000000       0.04000000 </v>
   <v>      -0.16000000       0.12000000       0.04000000 </v>
   <v>      -0.12000000       0.12000000       0.04000000 </v>
   <v>      -0.08000000       0.12000000       0.04000000 </v>
   <v>       0.20000000       0.16000000       0.04000000 </v>
   <v>       0.24000000       0.16000000       0.04000000 </v>
   <v>       0.28000000       0.16000000       0.04000000 </v>
   <v>       0.32000000       0.16000000       0.04000000 </v>
   <v>       0.36000000       0.16000000       0.04000000 </v>
   <v>       0.40000000       0.16000000       0.04000000 </v>
   <v>       0.44000000       0.16000000       0.04000000 </v>
   <v>       0.48000000       0.16000000       0.04000000 </v>
   <v>      -0.48000000       0.16000000       0.04000000 </v>
   <v>      -0.44000000       0.16000000       0.04000000 </v>
   <v>      -0.40000000       0.16000000       0.04000000 </v>
   <v>      -0.36000000       0.16000000       0.04000000 </v>
   <v>      -0.32000000       0.16000000       0.04000000 </v>
   <v>      -0.28000000       0.16000000       0.04000000 </v>
   <v>      -0.24000000       0.16000000       0.04000000 </v>
   <v>      -0.20000000       0.16000000       0.04000000 </v>
   <v>      -0.16000000       0.16000000       0.04000000 </v>
   <v>      -0.12000000       0.16000000       0.04000000 </v>
   <v>       0.24000000       0.20000000       0.04000000 </v>
   <v>       0.28000000       0.20000000       0.04000000 </v>
   <v>       0.32000000       0.20000000       0.04000000 </v>
   <v>       0.36000000       0.20000000       0.04000000 </v>
   <v>       0.40000000       0.20000000       0.04000000 </v>
   <v>       0.44000000       0.20000000       0.04000000 </v>
   <v>       0.48000000       0.20000000       0.04000000 </v>
   <v>      -0.48000000       0.20000000       0.04000000 </v>
   <v>      -0.44000000       0.20000000       0.04000000 </v>
   <v>      -0.40000000       0.20000000       0.04000000 </v>
   <v>      -0.36000000       0.20000000       0.04000000 </v>
   <v>      -0.32000000       0.20000000       0.04000000 </v>
   <v>      -0.28000000       0.20000000       0.04000000 </v>
   <v>      -0.24000000       0.20000000       0.04000000 </v>
   <v>      -0.20000000       0.20000000       0.04000000 </v>
   <v>      -0.16000000       0.20000000       0.04000000 </v>
   <v>       0.28000000       0.24000000       0.04000000 </v>
   <v>       0.32000000       0.24000000       0.04000000 </v>
   <v>       0.36000000       0.24000000       0.04000000 </v>
   <v>       0.40000000       0.24000000       0.04000000 </v>
   <v>       0.44000000       0.24000000       0.04000000 </v>
   <v>       0.48000000       0.24000000       0.04000000 </v>
   <v>      -0.48000000       0.24000000       0.04000000 </v>
   <v>      -0.44000000       0.24000000       0.04000000 </v>
   <v>      -0.40000000       0.24000000       0.04000000 </v>
   <v>      -0.36000000       0.24000000       0.04000000 </v>
   <v>      -0.32000000       0.24000000       0.04000000 </v>
   <v>      -0.28000000       0.24000000       0.04000000 </v>
   <v>      -0.24000000       0.24000000       0.04000000 </v>
   <v>      -0.20000000       0.24000000       0.04000000 </v>
   <v>       0.32000000       0.28000000       0.04000000 </v>
   <v>       0.36000000       0.28000000       0.04000000 </v>
   <v>       0.40000000       0.28000000       0.04000000 </v>
   <v>       0.44000000       0.28000000       0.04000000 </v>
   <v>       0.48000000       0.28000000       0.04000000 </v>
   <v>      -0.48000000       0.28000000       0.04000000 </v>
   <v>      -0.44000000       0.28000000       0.04000000 </v>
   <v>      -0.40000000       0.28000000       0.04000000 </v>
   <v>      -0.36000000       0.28000000       0.04000000 </v>
   <v>      -0.32000000       0.28000000       0.04000000 </v>
   <v>      -0.28000000       0.28000000       0.04000000 </v>
   <v>      -0.24000000       0.28000000       0.04000000 </v>
   <v>       0.36000000       0.32000000       0.04000000 </v>
   <v>       0.40000000       0.32000000       0.04000000 </v>
   <v>       0.44000000       0.32000000       0.04000000 </v>
   <v>       0.48000000       0.32000000       0.04000000 </v>
   <v>      -0.48000000       0.32000000       0.04000000 </v>
   <v>      -0.44000000       0.32000000       0.04000000 </v>
   <v>      -0.40000000       0.32000000       0.04000000 </v>
   <v>      -0.36000000       0.32000000       0.04000000 </v>
   <v>      -0.32000000       0.32000000       0.04000000 </v>
   <v>      -0.28000000       0.32000000       0.04000000 </v>
   <v>       0.40000000       0.36000000       0.04000000 </v>
   <v>       0.44000000       0.36000000       0.04000000 </v>
   <v>       0.48000000       0.36000000       0.04000000 </v>
   <v>      -0.48000000       0.36000000       0.04000000 </v>
   <v>      -0.44000000       0.36000000       0.04000000 </v>
   <v>      -0.40000000       0.36000000       0.04000000 </v>
   <v>      -0.36000000       0.36000000       0.04000000 </v>
   <v>      -0.32000000       0.36000000       0.04000000 </v>
   <v>       0.44000000       0.40000000       0.04000000 </v>
   <v>       0.48000000       0.40000000       0.04000000 </v>
   <v>      -0.48000000       0.40000000       0.04000000 </v>
   <v>      -0.44000000       0.40000000       0.04000000 </v>
   <v>      -0.40000000       0.40000000       0.04000000 </v>
   <v>      -0.36000000       0.40000000       0.04000000 </v>
   <v>       0.48000000       0.44000000       0.04000000 </v>
   <v>      -0.48000000       0.44000000       0.04000000 </v>
   <v>      -0.44000000       0.44000000       0.04000000 </v>
   <v>      -0.40000000       0.44000000       0.04000000 </v>
   <v>      -0.48000000       0.48000000       0.04000000 </v>
   <v>      -0.44000000       0.48000000       0.04000000 </v>
   <v>       0.24000000       0.16000000       0.08000000 </v>
   <v>       0.28000000       0.16000000       0.08000000 </v>
   <v>       0.32000000       0.16000000       0.08000000 </v>
   <v>       0.36000000       0.16000000       0.08000000 </v>
   <v>       0.40000000       0.16000000       0.08000000 </v>
   <v>       0.44000000       0.16000000       0.08000000 </v>
   <v>       0.48000000       0.16000000       0.08000000 </v>
   <v>      -0.48000000       0.16000000       0.08000000 </v>
   <v>      -0.44000000       0.16000000       0.08000000 </v>
   <v>       0.28000000       0.20000000       0.08000000 </v>
   <v>       0.32000000       0.20000000       0.08000000 </v>
   <v>       0.36000000       0.20000000       0.08000000 </v>
   <v>       0.40000000       0.20000000       0.08000000 </v>
   <v>       0.44000000       0.20000000       0.08000000 </v>
   <v>       0.48000000       0.20000000       0.08000000 </v>
   <v>      -0.48000000       0.20000000       0.08000000 </v>
   <v>      -0.44000000       0.20000000       0.08000000 </v>
   <v>      -0.40000000       0.20000000       0.08000000 </v>
   <v>      -0.36000000       0.20000000       0.08000000 </v>
   <v>      -0.32000000       0.20000000       0.08000000 </v>
   <v>      -0.28000000       0.20000000       0.08000000 </v>
   <v>      -0.24000000       0.20000000       0.08000000 </v>
   <v>      -0.20000000       0.20000000       0.08000000 </v>
   <v>      -0.16000000       0.20000000       0.08000000 </v>
   <v>      -0.12000000       0.20000000       0.08000000 </v>
   <v>       0.32000000       0.24000000       0.08000000 </v>
   <v>       0.36000000       0.24000000       0.08000000 </v>
   <v>       0.40000000       0.24000000       0.08000000 </v>
   <v>       0.44000000       0.24000000       0.08000000 </v>
   <v>       0.48000000       0.24000000       0.08000000 </v>
   <v>      -0.48000000       0.24000000       0.08000000 </v>
   <v>      -0.44000000       0.24000000       0.08000000 </v>
   <v>      -0.40000000       0.24000000       0.08000000 </v>
   <v>      -0.36000000       0.24000000       0.08000000 </v>
   <v>      -0.32000000       0.24000000       0.08000000 </v>
   <v>      -0.28000000       0.24000000       0.08000000 </v>
   <v>      -0.24000000       0.24000000       0.08000000 </v>
   <v>      -0.20000000       0.24000000       0.08000000 </v>
   <v>      -0.16000000       0.24000000       0.08000000 </v>
   <v>       0.36000000       0.28000000       0.08000000 </v>
   <v>       0.40000000       0.28000000       0.08000000 </v>
   <v>       0.44000000       0.28000000       0.08000000 </v>
   <v>       0.48000000       0.28000000       0.08000000 </v>
   <v>      -0.48000000       0.28000000       0.08000000 </v>
   <v>      -0.44000000       0.28000000       0.08000000 </v>
   <v>      -0.40000000       0.28000000       0.08000000 </v>
   <v>      -0.36000000       0.28000000       0.08000000 </v>
   <v>      -0.32000000       0.28000000       0.08000000 </v>
   <v>      -0.28000000       0.28000000       0.08000000 </v>
   <v>      -0.24000000       0.28000000       0.08000000 </v>
   <v>      -0.20000000       0.28000000       0.08000000 </v>
   <v>       0.40000000       0.32000000       0.08000000 </v>
   <v>       0.44000000       0.32000000       0.08000000 </v>
   <v>       0.48000000       0.32000000       0.08000000 </v>
   <v>      -0.48000000       0.32000000       0.08000000 </v>
   <v>      -0.44000000       0.32000000       0.08000000 </v>
   <v>      -0.40000000       0.32000000       0.08000000 </v>
   <v>      -0.36000000       0.32000000       0.08000000 </v>
   <v>      -0.32000000       0.32000000       0.08000000 </v>
   <v>      -0.28000000       0.32000000       0.08000000 </v>
   <v>      -0.24000000       0.32000000       0.08000000 </v>
   <v>       0.44000000       0.36000000       0.08000000 </v>
   <v>       0.48000000       0.36000000       0.08000000 </v>
   <v>      -0.48000000       0.36000000       0.08000000 </v>
   <v>      -0.44000000       0.36000000       0.08000000 </v>
   <v>      -0.40000000       0.36000000       0.08000000 </v>
   <v>      -0.36000000       0.36000000       0.08000000 </v>
   <v>      -0.32000000       0.36000000       0.08000000 </v>
   <v>      -0.28000000       0.36000000       0.08000000 </v>
   <v>       0.48000000       0.40000000       0.08000000 </v>
   <v>      -0.48000000       0.40000000       0.08000000 </v>
   <v>      -0.44000000       0.40000000       0.08000000 </v>
   <v>      -0.40000000       0.40000000       0.08000000 </v>
   <v>      -0.36000000       0.40000000       0.08000000 </v>
   <v>      -0.32000000       0.40000000       0.08000000 </v>
   <v>      -0.48000000       0.44000000       0.08000000 </v>
   <v>      -0.44000000       0.44000000       0.08000000 </v>
   <v>      -0.40000000       0.44000000       0.08000000 </v>
   <v>      -0.36000000       0.44000000       0.08000000 </v>
   <v>      -0.44000000       0.48000000       0.08000000 </v>
   <v>      -0.40000000       0.48000000       0.08000000 </v>
   <v>       0.36000000       0.24000000       0.12000000 </v>
   <v>       0.40000000       0.24000000       0.12000000 </v>
   <v>       0.44000000       0.24000000       0.12000000 </v>
   <v>       0.48000000       0.24000000       0.12000000 </v>
   <v>      -0.48000000       0.24000000       0.12000000 </v>
   <v>      -0.44000000       0.24000000       0.12000000 </v>
   <v>      -0.40000000       0.24000000       0.12000000 </v>
   <v>       0.40000000       0.28000000       0.12000000 </v>
   <v>       0.44000000       0.28000000       0.12000000 </v>
   <v>       0.48000000       0.28000000       0.12000000 </v>
   <v>      -0.48000000       0.28000000       0.12000000 </v>
   <v>      -0.44000000       0.28000000       0.12000000 </v>
   <v>      -0.40000000       0.28000000       0.12000000 </v>
   <v>      -0.36000000       0.28000000       0.12000000 </v>
   <v>      -0.32000000       0.28000000       0.12000000 </v>
   <v>      -0.28000000       0.28000000       0.12000000 </v>
   <v>      -0.24000000       0.28000000       0.12000000 </v>
   <v>      -0.20000000       0.28000000       0.12000000 </v>
   <v>      -0.16000000       0.28000000       0.12000000 </v>
   <v>       0.44000000       0.32000000       0.12000000 </v>
   <v>       0.48000000       0.32000000       0.12000000 </v>
   <v>      -0.48000000       0.32000000       0.12000000 </v>
   <v>      -0.44000000       0.32000000       0.12000000 </v>
   <v>      -0.40000000       0.32000000       0.12000000 </v>
   <v>      -0.36000000       0.32000000       0.12000000 </v>
   <v>      -0.32000000       0.32000000       0.12000000 </v>
   <v>      -0.28000000       0.32000000       0.12000000 </v>
   <v>      -0.24000000       0.32000000       0.12000000 </v>
   <v>      -0.20000000       0.32000000       0.12000000 </v>
   <v>       0.48000000       0.36000000       0.12000000 </v>
   <v>      -0.48000000       0.36000000       0.12000000 </v>
   <v>      -0.44000000       0.36000000       0.12000000 </v>
   <v>      -0.40000000       0.36000000       0.12000000 </v>
   <v>      -0.36000000       0.36000000       0.12000000 </v>
   <v>      -0.32000000       0.36000000       0.12000000 </v>
   <v>      -0.28000000       0.36000000       0.12000000 </v>
   <v>      -0.24000000       0.36000000       0.12000000 </v>
   <v>      -0.48000000       0.40000000       0.12000000 </v>
   <v>      -0.44000000       0.40000000       0.12000000 </v>
   <v>      -0.40000000       0.40000000       0.12000000 </v>
   <v>      -0.36000000       0.40000000       0.12000000 </v>
   <v>      -0.32000000       0.40000000       0.12000000 </v>
   <v>      -0.28000000       0.40000000       0.12000000 </v>
   <v>      -0.44000000       0.44000000       0.12000000 </v>
   <v>      -0.40000000       0.44000000       0.12000000 </v>
   <v>      -0.36000000       0.44000000       0.12000000 </v>
   <v>      -0.32000000       0.44000000       0.12000000 </v>
   <v>      -0.40000000       0.48000000       0.12000000 </v>
   <v>      -0.36000000       0.48000000       0.12000000 </v>
   <v>       0.48000000       0.32000000       0.16000000 </v>
   <v>      -0.48000000       0.32000000       0.16000000 </v>
   <v>      -0.44000000       0.32000000       0.16000000 </v>
   <v>      -0.40000000       0.32000000       0.16000000 </v>
   <v>      -0.36000000       0.32000000       0.16000000 </v>
   <v>      -0.48000000       0.36000000       0.16000000 </v>
   <v>      -0.44000000       0.36000000       0.16000000 </v>
   <v>      -0.40000000       0.36000000       0.16000000 </v>
   <v>      -0.36000000       0.36000000       0.16000000 </v>
   <v>      -0.32000000       0.36000000       0.16000000 </v>
   <v>      -0.28000000       0.36000000       0.16000000 </v>
   <v>      -0.24000000       0.36000000       0.16000000 </v>
   <v>      -0.20000000       0.36000000       0.16000000 </v>
   <v>      -0.44000000       0.40000000       0.16000000 </v>
   <v>      -0.40000000       0.40000000       0.16000000 </v>
   <v>      -0.36000000       0.40000000       0.16000000 </v>
   <v>      -0.32000000       0.40000000       0.16000000 </v>
   <v>      -0.28000000       0.40000000       0.16000000 </v>
   <v>      -0.24000000       0.40000000       0.16000000 </v>
   <v>      -0.40000000       0.44000000       0.16000000 </v>
   <v>      -0.36000000       0.44000000       0.16000000 </v>
   <v>      -0.32000000       0.44000000       0.16000000 </v>
   <v>      -0.28000000       0.44000000       0.16000000 </v>
   <v>      -0.36000000       0.48000000       0.16000000 </v>
   <v>      -0.32000000       0.48000000       0.16000000 </v>
   <v>      -0.40000000       0.40000000       0.20000000 </v>
   <v>      -0.36000000       0.40000000       0.20000000 </v>
   <v>      -0.32000000       0.40000000       0.20000000 </v>
   <v>      -0.36000000       0.44000000       0.20000000 </v>
   <v>      -0.32000000       0.44000000       0.20000000 </v>
   <v>      -0.28000000       0.44000000       0.20000000 </v>
   <v>      -0.24000000       0.44000000       0.20000000 </v>
   <v>      -0.32000000       0.48000000       0.20000000 </v>
   <v>      -0.28000000       0.48000000       0.20000000 </v>
   <v>      -0.28000000       0.48000000       0.24000000 </v>
  </varray>
  <varray name="weights" >
   <v>       0.00006400 </v>
   <v>       0.00051200 </v>
   <v>       0.00051200 </v>
   <v>       0.00051200 </v>
   <v>       0.00051200 </v>
   <v>       0.00051200 </v>
   <v>       0.00051200 </v>
   <v>       0.00051200 </v>
   <v>       0.00051200 </v>
   <v>       0.00051200 </v>
   <v>       0.00051200 </v>
   <v>       0.00051200 </v>
   <v>       0.00051200 </v>
   <v>       0.00038400 </v>
   <v>       0.00153600 </v>
   <v>       0.00153600 </v>
   <v>       0.00153600 </v>
   <v>       0.00153600 </v>
   <v>       0.00153600 </v>
   <v>       0.00153600 </v>
   <v>       0.00153600 </v>
   <v>       0.00153600 </v>
   <v>       0.00153600 </v>
   <v>       0.00153600 </v>
   <v>       0.00153600 </v>
   <v>       0.00153600 </v>
   <v>       0.00153600 </v>
   <v>       0.00153600 </v>
   <v>       0.00153600 </v>
   <v>       0.00153600 </v>
   <v>       0.00153600 </v>
   <v>       0.00153600 </v>
   <v>       0.00153600 </v>
   <v>       0.00153600 </v>
   <v>       0.00153600 </v>
   <v>       0.00153600 </v>
   <v>       0.00076800 </v>
   <v>       0.00038400 </v>
   <v>       0.00153600 </v>
   <v>       0.00153600 </v>
   <v>       0.00153600 </v>
   <v>       0.00153600 </v>
   <v>       0.00153600 </v>
   <v>       0.00153600 </v>
   <v>       0.00153600 </v>
   <v>       0.00153600 </v>
   <v>       0.00153600 </v>
   <v>       0.00153600 </v>
   <v>       0.00153600 </v>
   <v>       0.00153600 </v>
   <v>       0.00153600 </v>
   <v>       0.00153600 </v>
   <v>       0.00153600 </v>
   <v>       0.00153600 </v>
   <v>       0.00153600 </v>
   <v>       0.00153600 </v>
   <v>       0.00153600 </v>
   <v>       0.00153600 </v>
   <v>       0.00076800 </v>
   <v>       0.00038400 </v>
   <v>       0.00153600 </v>
   <v>       0.00153600 </v>
   <v>       0.00153600 </v>
   <v>       0.00153600 </v>
   <v>       0.00153600 </v>
   <v>       0.00153600 </v>
   <v>       0.00153600 </v>
   <v>       0.00153600 </v>
   <v>       0.00153600 </v>
   <v>       0.00153600 </v>
   <v>       0.00153600 </v>
   <v>       0.00153600 </v>
   <v>       0.00153600 </v>
   <v>       0.00153600 </v>
   <v>       0.00153600 </v>
   <v>       0.00153600 </v>
   <v>       0.00153600 </v>
   <v>       0.00153600 </v>
   <v>       0.00076800 </v>
   <v>       0.00038400 </v>
   <v>       0.00153600 </v>
   <v>       0.00153600 </v>
   <v>       0.00153600 </v>
   <v>       0.00153600 </v>
   <v>       0.00153600 </v>
   <v>       0.00153600 </v>
   <v>       0.00153600 </v>
   <v>       0.00153600 </v>
   <v>       0.00153600 </v>
   <v>       0.00153600 </v>
   <v>       0.00153600 </v>
   <v>       0.00153600 </v>
   <v>       0.00153600 </v>
   <v>       0.00153600 </v>
   <v>       0.00153600 </v>
   <v>       0.00153600 </v>
   <v>       0.00076800 </v>
   <v>       0.00038400 </v>
   <v>       0.00153600 </v>
   <v>       0.00153600 </v>
   <v>       0.00153600 </v>
   <v>       0.00153600 </v>
   <v>       0.00153600 </v>
   <v>       0.00153600 </v>
   <v>       0.00153600 </v>
   <v>       0.00153600 </v>
   <v>       0.00153600 </v>
   <v>       0.00153600 </v>
   <v>       0.00153600 </v>
   <v>       0.00153600 </v>
   <v>       0.00153600 </v>
   <v>       0.00153600 </v>
   <v>       0.00076800 </v>
   <v>       0.00038400 </v>
   <v>       0.00153600 </v>
   <v>       0.00153600 </v>
   <v>       0.00153600 </v>
   <v>       0.00153600 </v>
   <v>       0.00153600 </v>
   <v>       0.00153600 </v>
   <v>       0.00153600 </v>
   <v>       0.00153600 </v>
   <v>       0.00153600 </v>
   <v>       0.00153600 </v>
   <v>       0.00153600 </v>
   <v>       0.00153600 </v>
   <v>       0.00076800 </v>
   <v>       0.00038400 </v>
   <v>       0.00153600 </v>
   <v>       0.00153600 </v>
   <v>       0.00153600 </v>
   <v>       0.00153600 </v>
   <v>       0.00153600 </v>
   <v>       0.00153600 </v>
   <v>       0.00153600 </v>
   <v>       0.00153600 </v>
   <v>       0.00153600 </v>
   <v>       0.00153600 </v>
   <v>       0.00076800 </v>
   <v>       0.00038400 </v>
   <v>       0.00153600 </v>
   <v>       0.00153600 </v>
   <v>       0.00153600 </v>
   <v>       0.00153600 </v>
   <v>       0.00153600 </v>
   <v>       0.00153600 </v>
   <v>       0.00153600 </v>
   <v>       0.00153600 </v>
   <v>       0.00076800 </v>
   <v>       0.00038400 </v>
   <v>       0.00153600 </v>
   <v>       0.00153600 </v>
   <v>       0.00153600 </v>
   <v>       0.00153600 </v>
   <v>       0.00153600 </v>
   <v>       0.00153600 </v>
   <v>       0.00076800 </v>
   <v>       0.00038400 </v>
   <v>       0.00153600 </v>
   <v>       0.00153600 </v>
   <v>       0.00153600 </v>
   <v>       0.00153600 </v>
   <v>       0.00076800 </v>
   <v>       0.00038400 </v>
   <v>       0.00153600 </v>
   <v>       0.00153600 </v>
   <v>       0.00076800 </v>
   <v>       0.00038400 </v>
   <v>       0.00076800 </v>
   <v>       0.00153600 </v>
   <v>       0.00307200 </v>
   <v>       0.00307200 </v>
   <v>       0.00307200 </v>
   <v>       0.00307200 </v>
   <v>       0.00307200 </v>
   <v>       0.00307200 </v>
   <v>       0.00307200 </v>
   <v>       0.00307200 </v>
   <v>       0.00307200 </v>
   <v>       0.00307200 </v>
   <v>       0.00153600 </v>
   <v>       0.00307200 </v>
   <v>       0.00307200 </v>
   <v>       0.00307200 </v>
   <v>       0.00307200 </v>
   <v>       0.00307200 </v>
   <v>       0.00307200 </v>
   <v>       0.00307200 </v>
   <v>       0.00307200 </v>
   <v>       0.00307200 </v>
   <v>       0.00307200 </v>
   <v>       0.00307200 </v>
   <v>       0.00307200 </v>
   <v>       0.00307200 </v>
   <v>       0.00307200 </v>
   <v>       0.00307200 </v>
   <v>       0.00307200 </v>
   <v>       0.00307200 </v>
   <v>       0.00307200 </v>
   <v>       0.00153600 </v>
   <v>       0.00153600 </v>
   <v>       0.00307200 </v>
   <v>       0.00307200 </v>
   <v>       0.00307200 </v>
   <v>       0.00307200 </v>
   <v>       0.00307200 </v>
   <v>       0.00307200 </v>
   <v>       0.00307200 </v>
   <v>       0.00307200 </v>
   <v>       0.00307200 </v>
   <v>       0.00307200 </v>
   <v>       0.00307200 </v>
   <v>       0.00307200 </v>
   <v>       0.00307200 </v>
   <v>       0.00307200 </v>
   <v>       0.00307200 </v>
   <v>       0.00307200 </v>
   <v>       0.00153600 </v>
   <v>       0.00153600 </v>
   <v>       0.00307200 </v>
   <v>       0.00307200 </v>
   <v>       0.00307200 </v>
   <v>       0.00307200 </v>
   <v>       0.00307200 </v>
   <v>       0.00307200 </v>
   <v>       0.00307200 </v>
   <v>       0.00307200 </v>
   <v>       0.00307200 </v>
   <v>       0.00307200 </v>
   <v>       0.00307200 </v>
   <v>       0.00307200 </v>
   <v>       0.00307200 </v>
   <v>       0.00307200 </v>
   <v>       0.00153600 </v>
   <v>       0.00153600 </v>
   <v>       0.00307200 </v>
   <v>       0.00307200 </v>
   <v>       0.00307200 </v>
   <v>       0.00307200 </v>
   <v>       0.00307200 </v>
   <v>       0.00307200 </v>
   <v>       0.00307200 </v>
   <v>       0.00307200 </v>
   <v>       0.00307200 </v>
   <v>       0.00307200 </v>
   <v>       0.00307200 </v>
   <v>       0.00307200 </v>
   <v>       0.00153600 </v>
   <v>       0.00153600 </v>
   <v>       0.00307200 </v>
   <v>       0.00307200 </v>
   <v>       0.00307200 </v>
   <v>       0.00307200 </v>
   <v>       0.00307200 </v>
   <v>       0.00307200 </v>
   <v>       0.00307200 </v>
   <v>       0.00307200 </v>
   <v>       0.00307200 </v>
   <v>       0.00307200 </v>
   <v>       0.00153600 </v>
   <v>       0.00153600 </v>
   <v>       0.00307200 </v>
   <v>       0.00307200 </v>
   <v>       0.00307200 </v>
   <v>       0.00307200 </v>
   <v>       0.00307200 </v>
   <v>       0.00307200 </v>
   <v>       0.00307200 </v>
   <v>       0.00307200 </v>
   <v>       0.00153600 </v>
   <v>       0.00153600 </v>
   <v>       0.00307200 </v>
   <v>       0.00307200 </v>
   <v>       0.00307200 </v>
   <v>       0.00307200 </v>
   <v>       0.00307200 </v>
   <v>       0.00307200 </v>
   <v>       0.00153600 </v>
   <v>       0.00153600 </v>
   <v>       0.00307200 </v>
   <v>       0.00307200 </v>
   <v>       0.00307200 </v>
   <v>       0.00307200 </v>
   <v>       0.00153600 </v>
   <v>       0.00153600 </v>
   <v>       0.00307200 </v>
   <v>       0.00307200 </v>
   <v>       0.00153600 </v>
   <v>       0.00153600 </v>
   <v>       0.00153600 </v>
   <v>       0.00153600 </v>
   <v>       0.00307200 </v>
   <v>       0.00307200 </v>
   <v>       0.00307200 </v>
   <v>       0.00307200 </v>
   <v>       0.00307200 </v>
   <v>       0.00307200 </v>
   <v>       0.00307200 </v>
   <v>       0.00307200 </v>
   <v>       0.00153600 </v>
   <v>       0.00307200 </v>
   <v>       0.00307200 </v>
   <v>       0.00307200 </v>
   <v>       0.00307200 </v>
   <v>       0.00307200 </v>
   <v>       0.00307200 </v>
   <v>       0.00307200 </v>
   <v>       0.00307200 </v>
   <v>       0.00307200 </v>
   <v>       0.00307200 </v>
   <v>       0.00307200 </v>
   <v>       0.00307200 </v>
   <v>       0.00307200 </v>
   <v>       0.00307200 </v>
   <v>       0.00153600 </v>
   <v>       0.00153600 </v>
   <v>       0.00307200 </v>
   <v>       0.00307200 </v>
   <v>       0.00307200 </v>
   <v>       0.00307200 </v>
   <v>       0.00307200 </v>
   <v>       0.00307200 </v>
   <v>       0.00307200 </v>
   <v>       0.00307200 </v>
   <v>       0.00307200 </v>
   <v>       0.00307200 </v>
   <v>       0.00307200 </v>
   <v>       0.00307200 </v>
   <v>       0.00153600 </v>
   <v>       0.00153600 </v>
   <v>       0.00307200 </v>
   <v>       0.00307200 </v>
   <v>       0.00307200 </v>
   <v>       0.00307200 </v>
   <v>       0.00307200 </v>
   <v>       0.00307200 </v>
   <v>       0.00307200 </v>
   <v>       0.00307200 </v>
   <v>       0.00307200 </v>
   <v>       0.00307200 </v>
   <v>       0.00153600 </v>
   <v>       0.00153600 </v>
   <v>       0.00307200 </v>
   <v>       0.00307200 </v>
   <v>       0.00307200 </v>
   <v>       0.00307200 </v>
   <v>       0.00307200 </v>
   <v>       0.00307200 </v>
   <v>       0.00307200 </v>
   <v>       0.00307200 </v>
   <v>       0.00153600 </v>
   <v>       0.00153600 </v>
   <v>       0.00307200 </v>
   <v>       0.00307200 </v>
   <v>       0.00307200 </v>
   <v>       0.00307200 </v>
   <v>       0.00307200 </v>
   <v>       0.00307200 </v>
   <v>       0.00153600 </v>
   <v>       0.00153600 </v>
   <v>       0.00307200 </v>
   <v>       0.00307200 </v>
   <v>       0.00307200 </v>
   <v>       0.00307200 </v>
   <v>       0.00153600 </v>
   <v>       0.00153600 </v>
   <v>       0.00307200 </v>
   <v>       0.00307200 </v>
   <v>       0.00153600 </v>
   <v>       0.00153600 </v>
   <v>       0.00153600 </v>
   <v>       0.00153600 </v>
   <v>       0.00307200 </v>
   <v>       0.00307200 </v>
   <v>       0.00307200 </v>
   <v>       0.00307200 </v>
   <v>       0.00307200 </v>
   <v>       0.00307200 </v>
   <v>       0.00153600 </v>
   <v>       0.00307200 </v>
   <v>       0.00307200 </v>
   <v>       0.00307200 </v>
   <v>       0.00307200 </v>
   <v>       0.00307200 </v>
   <v>       0.00307200 </v>
   <v>       0.00307200 </v>
   <v>       0.00307200 </v>
   <v>       0.00307200 </v>
   <v>       0.00307200 </v>
   <v>       0.00153600 </v>
   <v>       0.00153600 </v>
   <v>       0.00307200 </v>
   <v>       0.00307200 </v>
   <v>       0.00307200 </v>
   <v>       0.00307200 </v>
   <v>       0.00307200 </v>
   <v>       0.00307200 </v>
   <v>       0.00307200 </v>
   <v>       0.00307200 </v>
   <v>       0.00153600 </v>
   <v>       0.00153600 </v>
   <v>       0.00307200 </v>
   <v>       0.00307200 </v>
   <v>       0.00307200 </v>
   <v>       0.00307200 </v>
   <v>       0.00307200 </v>
   <v>       0.00307200 </v>
   <v>       0.00153600 </v>
   <v>       0.00153600 </v>
   <v>       0.00307200 </v>
   <v>       0.00307200 </v>
   <v>       0.00307200 </v>
   <v>       0.00307200 </v>
   <v>       0.00153600 </v>
   <v>       0.00153600 </v>
   <v>       0.00307200 </v>
   <v>       0.00307200 </v>
   <v>       0.00153600 </v>
   <v>       0.00153600 </v>
   <v>       0.00153600 </v>
   <v>       0.00153600 </v>
   <v>       0.00307200 </v>
   <v>       0.00307200 </v>
   <v>       0.00307200 </v>
   <v>       0.00307200 </v>
   <v>       0.00153600 </v>
   <v>       0.00307200 </v>
   <v>       0.00307200 </v>
   <v>       0.00307200 </v>
   <v>       0.00307200 </v>
   <v>       0.00307200 </v>
   <v>       0.00307200 </v>
   <v>       0.00153600 </v>
   <v>       0.00153600 </v>
   <v>       0.00307200 </v>
   <v>       0.00307200 </v>
   <v>       0.00307200 </v>
   <v>       0.00307200 </v>
   <v>       0.00153600 </v>
   <v>       0.00153600 </v>
   <v>       0.00307200 </v>
   <v>       0.00307200 </v>
   <v>       0.00153600 </v>
   <v>       0.00153600 </v>
   <v>       0.00153600 </v>
   <v>       0.00153600 </v>
   <v>       0.00307200 </v>
   <v>       0.00307200 </v>
   <v>       0.00153600 </v>
   <v>       0.00307200 </v>
   <v>       0.00307200 </v>
   <v>       0.00153600 </v>
   <v>       0.00153600 </v>
   <v>       0.00153600 </v>
   <v>       0.00153600 </v>
  </varray>
  <varray name="tetrahedronlist"  type="int" >
   <v type="int" >       48        2        3       15       37 </v>
   <v type="int" >       48       15       36       37      170 </v>
   <v type="int" >       24       36       36       37      170 </v>
   <v type="int" >       48        3       15       36       37 </v>
   <v type="int" >       48       36       59      170      171 </v>
   <v type="int" >       48       35       36       59      171 </v>
   <v type="int" >       24       36       36       59      170 </v>
   <v type="int" >       48       35       58      171      172 </v>
   <v type="int" >       48       34       35       58      172 </v>
   <v type="int" >       48       35       58       59      171 </v>
   <v type="int" >       48       34       57      172      173 </v>
   <v type="int" >       48       33       34       57      173 </v>
   <v type="int" >       48       34       57       58      172 </v>
   <v type="int" >       48       33       56      173      174 </v>
   <v type="int" >       48       32       33       56      174 </v>
   <v type="int" >       48       33       56       57      173 </v>
   <v type="int" >       48       32       55      174      175 </v>
   <v type="int" >       48       31       32       55      175 </v>
   <v type="int" >       48       32       55       56      174 </v>
   <v type="int" >       48       31       54      175      176 </v>
   <v type="int" >       48       30       31       54      176 </v>
   <v type="int" >       48       31       54       55      175 </v>
   <v type="int" >       48       30       53      176      177 </v>
   <v type="int" >       48       29       30       53      177 </v>
   <v type="int" >       48       30       53       54      176 </v>
   <v type="int" >       48       29       52      177      178 </v>
   <v type="int" >       48       28       29       52      178 </v>
   <v type="int" >       48       29       52       53      177 </v>
   <v type="int" >       48       28       51      178      179 </v>
   <v type="int" >       48       27       28       51      179 </v>
   <v type="int" >       48       28       51       52      178 </v>
   <v type="int" >       48       27       50      179      180 </v>
   <v type="int" >       48       26       27       50      180 </v>
   <v type="int" >       48       27       50       51      179 </v>
   <v type="int" >       48       26       49      180      180 </v>
   <v type="int" >       48       25       26       49      180 </v>
   <v type="int" >       48       26       49       50      180 </v>
   <v type="int" >       48       25       48      179      180 </v>
   <v type="int" >       48       24       25       48      179 </v>
   <v type="int" >       48       25       48       49      180 </v>
   <v type="int" >       48       24       47      178      179 </v>
   <v type="int" >       48       23       24       47      178 </v>
   <v type="int" >       48       24       47       48      179 </v>
   <v type="int" >       48       23       46      177      178 </v>
   <v type="int" >       48       22       23       46      177 </v>
   <v type="int" >       48       23       46       47      178 </v>
   <v type="int" >       48       22       45      176      177 </v>
   <v type="int" >       48       21       22       45      176 </v>
   <v type="int" >       48       22       45       46      177 </v>
   <v type="int" >       48       21       44      175      176 </v>
   <v type="int" >       48       20       21       44      175 </v>
   <v type="int" >       48       21       44       45      176 </v>
   <v type="int" >       48       20       43      174      175 </v>
   <v type="int" >       48       19       20       43      174 </v>
   <v type="int" >       48       20       43       44      175 </v>
   <v type="int" >       48       19       42      173      174 </v>
   <v type="int" >       48       18       19       42      173 </v>
   <v type="int" >       48       19       42       43      174 </v>
   <v type="int" >       48       18       41      172      173 </v>
   <v type="int" >       48       17       18       41      172 </v>
   <v type="int" >       48       18       41       42      173 </v>
   <v type="int" >       48       17       40      171      172 </v>
   <v type="int" >       48       16       17       40      171 </v>
   <v type="int" >       48       17       40       41      172 </v>
   <v type="int" >       48       16       39      170      171 </v>
   <v type="int" >       48       15       16       39      170 </v>
   <v type="int" >       48       16       39       40      171 </v>
   <v type="int" >       24       15       15       38      170 </v>
   <v type="int" >       24       14       15       15       38 </v>
   <v type="int" >       48       15       38       39      170 </v>
   <v type="int" >       24       14       15       15       37 </v>
   <v type="int" >       48        2       14       15       37 </v>
   <v type="int" >       48       15       16       36      170 </v>
   <v type="int" >       48        3       15       16       36 </v>
   <v type="int" >       48       39      170      171      181 </v>
   <v type="int" >       24      170      171      171      181 </v>
   <v type="int" >       24       59      170      171      171 </v>
   <v type="int" >       48       16       36      170      171 </v>
   <v type="int" >       48      171      181      182      200 </v>
   <v type="int" >       48      171      172      182      200 </v>
   <v type="int" >       48       58      171      172      200 </v>
   <v type="int" >       24      171      171      181      200 </v>
   <v type="int" >       24       59      171      171      200 </v>
   <v type="int" >       48       58       59      171      200 </v>
   <v type="int" >       48      172      182      183      199 </v>
   <v type="int" >       48      172      173      183      199 </v>
   <v type="int" >       48       57      172      173      199 </v>
   <v type="int" >       48      172      182      199      200 </v>
   <v type="int" >       48       58      172      199      200 </v>
   <v type="int" >       48       57       58      172      199 </v>
   <v type="int" >       48      173      183      184      198 </v>
   <v type="int" >       48      173      174      184      198 </v>
   <v type="int" >       48       56      173      174      198 </v>
   <v type="int" >       48      173      183      198      199 </v>
   <v type="int" >       48       57      173      198      199 </v>
   <v type="int" >       48       56       57      173      198 </v>
   <v type="int" >       48      174      184      185      197 </v>
   <v type="int" >       48      174      175      185      197 </v>
   <v type="int" >       48       55      174      175      197 </v>
   <v type="int" >       48      174      184      197      198 </v>
   <v type="int" >       48       56      174      197      198 </v>
   <v type="int" >       48       55       56      174      197 </v>
   <v type="int" >       48      175      185      186      196 </v>
   <v type="int" >       48      175      176      186      196 </v>
   <v type="int" >       48       54      175      176      196 </v>
   <v type="int" >       48      175      185      196      197 </v>
   <v type="int" >       48       55      175      196      197 </v>
   <v type="int" >       48       54       55      175      196 </v>
   <v type="int" >       48      176      186      187      195 </v>
   <v type="int" >       48      176      177      187      195 </v>
   <v type="int" >       48       53      176      177      195 </v>
   <v type="int" >       48      176      186      195      196 </v>
   <v type="int" >       48       54      176      195      196 </v>
   <v type="int" >       48       53       54      176      195 </v>
   <v type="int" >       48      177      187      188      194 </v>
   <v type="int" >       48      177      178      188      194 </v>
   <v type="int" >       48       52      177      178      194 </v>
   <v type="int" >       48      177      187      194      195 </v>
   <v type="int" >       48       53      177      194      195 </v>
   <v type="int" >       48       52       53      177      194 </v>
   <v type="int" >       48      178      188      189      193 </v>
   <v type="int" >       48      178      179      189      193 </v>
   <v type="int" >       48       51      178      179      193 </v>
   <v type="int" >       48      178      188      193      194 </v>
   <v type="int" >       48       52      178      193      194 </v>
   <v type="int" >       48       51       52      178      193 </v>
   <v type="int" >       48      179      189      190      192 </v>
   <v type="int" >       48      179      180      190      192 </v>
   <v type="int" >       48       50      179      180      192 </v>
   <v type="int" >       48      179      189      192      193 </v>
   <v type="int" >       48       51      179      192      193 </v>
   <v type="int" >       48       50       51      179      192 </v>
   <v type="int" >       48      180      190      191      191 </v>
   <v type="int" >       24      180      180      191      191 </v>
   <v type="int" >       48       49      180      180      191 </v>
   <v type="int" >       48      180      190      191      192 </v>
   <v type="int" >       48       50      180      191      192 </v>
   <v type="int" >       48       49       50      180      191 </v>
   <v type="int" >       48       48      179      180      190 </v>
   <v type="int" >       48       49      180      190      191 </v>
   <v type="int" >       48       48       49      180      190 </v>
   <v type="int" >       48       47      178      179      189 </v>
   <v type="int" >       48       48      179      189      190 </v>
   <v type="int" >       48       47       48      179      189 </v>
   <v type="int" >       48       46      177      178      188 </v>
   <v type="int" >       48       47      178      188      189 </v>
   <v type="int" >       48       46       47      178      188 </v>
   <v type="int" >       48       45      176      177      187 </v>
   <v type="int" >       48       46      177      187      188 </v>
   <v type="int" >       48       45       46      177      187 </v>
   <v type="int" >       48       44      175      176      186 </v>
   <v type="int" >       48       45      176      186      187 </v>
   <v type="int" >       48       44       45      176      186 </v>
   <v type="int" >       48       43      174      175      185 </v>
   <v type="int" >       48       44      175      185      186 </v>
   <v type="int" >       48       43       44      175      185 </v>
   <v type="int" >       48       42      173      174      184 </v>
   <v type="int" >       48       43      174      184      185 </v>
   <v type="int" >       48       42       43      174      184 </v>
   <v type="int" >       48       41      172      173      183 </v>
   <v type="int" >       48       42      173      183      184 </v>
   <v type="int" >       48       41       42      173      183 </v>
   <v type="int" >       48       40      171      172      182 </v>
   <v type="int" >       48       41      172      182      183 </v>
   <v type="int" >       48       40       41      172      182 </v>
   <v type="int" >       48       40      171      181      182 </v>
   <v type="int" >       48       39       40      171      181 </v>
   <v type="int" >       24       39       39      170      181 </v>
   <v type="int" >       24       38       39       39      170 </v>
   <v type="int" >       24       15       15       37      170 </v>
   <v type="int" >       48       39       40       61      181 </v>
   <v type="int" >       48       61      181      182      201 </v>
   <v type="int" >       24      181      182      182      201 </v>
   <v type="int" >       24      181      182      182      200 </v>
   <v type="int" >       48       40       61      181      182 </v>
   <v type="int" >       48      182      201      202      291 </v>
   <v type="int" >       48      182      183      202      291 </v>
   <v type="int" >       48      182      183      199      291 </v>
   <v type="int" >       24      182      182      201      291 </v>
   <v type="int" >       24      182      182      200      291 </v>
   <v type="int" >       48      182      199      200      291 </v>
   <v type="int" >       48      183      202      203      292 </v>
   <v type="int" >       48      183      184      203      292 </v>
   <v type="int" >       48      183      184      198      292 </v>
   <v type="int" >       48      183      202      291      292 </v>
   <v type="int" >       48      183      199      291      292 </v>
   <v type="int" >       48      183      198      199      292 </v>
   <v type="int" >       48      184      203      204      293 </v>
   <v type="int" >       48      184      185      204      293 </v>
   <v type="int" >       48      184      185      197      293 </v>
   <v type="int" >       48      184      203      292      293 </v>
   <v type="int" >       48      184      198      292      293 </v>
   <v type="int" >       48      184      197      198      293 </v>
   <v type="int" >       48      185      204      205      294 </v>
   <v type="int" >       48      185      186      205      294 </v>
   <v type="int" >       48      185      186      196      294 </v>
   <v type="int" >       48      185      204      293      294 </v>
   <v type="int" >       48      185      197      293      294 </v>
   <v type="int" >       48      185      196      197      294 </v>
   <v type="int" >       48      186      205      206      295 </v>
   <v type="int" >       48      186      187      206      295 </v>
   <v type="int" >       48      186      187      195      295 </v>
   <v type="int" >       48      186      205      294      295 </v>
   <v type="int" >       48      186      196      294      295 </v>
   <v type="int" >       48      186      195      196      295 </v>
   <v type="int" >       48      187      206      207      296 </v>
   <v type="int" >       48      187      188      207      296 </v>
   <v type="int" >       48      187      188      194      296 </v>
   <v type="int" >       48      187      206      295      296 </v>
   <v type="int" >       48      187      195      295      296 </v>
   <v type="int" >       48      187      194      195      296 </v>
   <v type="int" >       48      188      207      208      297 </v>
   <v type="int" >       48      188      189      208      297 </v>
   <v type="int" >       48      188      189      193      297 </v>
   <v type="int" >       48      188      207      296      297 </v>
   <v type="int" >       48      188      194      296      297 </v>
   <v type="int" >       48      188      193      194      297 </v>
   <v type="int" >       48      189      208      209      298 </v>
   <v type="int" >       48      189      190      209      298 </v>
   <v type="int" >       48      189      190      192      298 </v>
   <v type="int" >       48      189      208      297      298 </v>
   <v type="int" >       48      189      193      297      298 </v>
   <v type="int" >       48      189      192      193      298 </v>
   <v type="int" >       48      190      209      210      299 </v>
   <v type="int" >       48      190      191      210      299 </v>
   <v type="int" >       48      190      191      191      299 </v>
   <v type="int" >       48      190      209      298      299 </v>
   <v type="int" >       48      190      192      298      299 </v>
   <v type="int" >       48      190      191      192      299 </v>
   <v type="int" >       48      191      210      211      299 </v>
   <v type="int" >       48      191      192      211      299 </v>
   <v type="int" >       48      191      210      299      299 </v>
   <v type="int" >       24      191      191      299      299 </v>
   <v type="int" >       48      192      211      212      298 </v>
   <v type="int" >       48      192      193      212      298 </v>
   <v type="int" >       48      192      211      298      299 </v>
   <v type="int" >       48      193      212      213      297 </v>
   <v type="int" >       48      193      194      213      297 </v>
   <v type="int" >       48      193      212      297      298 </v>
   <v type="int" >       48      194      213      214      296 </v>
   <v type="int" >       48      194      195      214      296 </v>
   <v type="int" >       48      194      213      296      297 </v>
   <v type="int" >       48      195      214      215      295 </v>
   <v type="int" >       48      195      196      215      295 </v>
   <v type="int" >       48      195      214      295      296 </v>
   <v type="int" >       48      196      215      216      294 </v>
   <v type="int" >       48      196      197      216      294 </v>
   <v type="int" >       48      196      215      294      295 </v>
   <v type="int" >       48      197      216      217      293 </v>
   <v type="int" >       48      197      198      217      293 </v>
   <v type="int" >       48      197      216      293      294 </v>
   <v type="int" >       48      198      217      218      292 </v>
   <v type="int" >       48      198      199      218      292 </v>
   <v type="int" >       48      198      217      292      293 </v>
   <v type="int" >       24      199      199      218      291 </v>
   <v type="int" >       24      199      199      200      291 </v>
   <v type="int" >       48      199      218      291      292 </v>
   <v type="int" >       48       16       17       35      171 </v>
   <v type="int" >       48       16       35       36      171 </v>
   <v type="int" >       48       61       62       81      201 </v>
   <v type="int" >       48       61       62      182      201 </v>
   <v type="int" >       48       40       61       62      182 </v>
   <v type="int" >       48       81      201      202      219 </v>
   <v type="int" >       24      201      202      202      219 </v>
   <v type="int" >       24      201      202      202      291 </v>
   <v type="int" >       48       62       81      201      202 </v>
   <v type="int" >       48       62      182      201      202 </v>
   <v type="int" >       48      202      219      220      300 </v>
   <v type="int" >       48      202      203      220      300 </v>
   <v type="int" >       48      202      203      292      300 </v>
   <v type="int" >       24      202      202      219      300 </v>
   <v type="int" >       24      202      202      291      300 </v>
   <v type="int" >       48      202      291      292      300 </v>
   <v type="int" >       48      203      220      221      301 </v>
   <v type="int" >       48      203      204      221      301 </v>
   <v type="int" >       48      203      204      293      301 </v>
   <v type="int" >       48      203      220      300      301 </v>
   <v type="int" >       48      203      292      300      301 </v>
   <v type="int" >       48      203      292      293      301 </v>
   <v type="int" >       48      204      221      222      302 </v>
   <v type="int" >       48      204      205      222      302 </v>
   <v type="int" >       48      204      205      294      302 </v>
   <v type="int" >       48      204      221      301      302 </v>
   <v type="int" >       48      204      293      301      302 </v>
   <v type="int" >       48      204      293      294      302 </v>
   <v type="int" >       48      205      222      223      303 </v>
   <v type="int" >       48      205      206      223      303 </v>
   <v type="int" >       48      205      206      295      303 </v>
   <v type="int" >       48      205      222      302      303 </v>
   <v type="int" >       48      205      294      302      303 </v>
   <v type="int" >       48      205      294      295      303 </v>
   <v type="int" >       48      206      223      224      304 </v>
   <v type="int" >       48      206      207      224      304 </v>
   <v type="int" >       48      206      207      296      304 </v>
   <v type="int" >       48      206      223      303      304 </v>
   <v type="int" >       48      206      295      303      304 </v>
   <v type="int" >       48      206      295      296      304 </v>
   <v type="int" >       48      207      224      225      305 </v>
   <v type="int" >       48      207      208      225      305 </v>
   <v type="int" >       48      207      208      297      305 </v>
   <v type="int" >       48      207      224      304      305 </v>
   <v type="int" >       48      207      296      304      305 </v>
   <v type="int" >       48      207      296      297      305 </v>
   <v type="int" >       48      208      225      226      306 </v>
   <v type="int" >       48      208      209      226      306 </v>
   <v type="int" >       48      208      209      298      306 </v>
   <v type="int" >       48      208      225      305      306 </v>
   <v type="int" >       48      208      297      305      306 </v>
   <v type="int" >       48      208      297      298      306 </v>
   <v type="int" >       48      209      226      227      307 </v>
   <v type="int" >       48      209      210      227      307 </v>
   <v type="int" >       48      209      210      299      307 </v>
   <v type="int" >       48      209      226      306      307 </v>
   <v type="int" >       48      209      298      306      307 </v>
   <v type="int" >       48      209      298      299      307 </v>
   <v type="int" >       48      210      227      228      308 </v>
   <v type="int" >       48      210      211      228      308 </v>
   <v type="int" >       48      210      211      299      308 </v>
   <v type="int" >       48      210      227      307      308 </v>
   <v type="int" >       48      210      299      307      308 </v>
   <v type="int" >       48      210      299      299      308 </v>
   <v type="int" >       48      211      228      229      309 </v>
   <v type="int" >       48      211      212      229      309 </v>
   <v type="int" >       48      211      212      298      309 </v>
   <v type="int" >       48      211      228      308      309 </v>
   <v type="int" >       48      211      299      308      309 </v>
   <v type="int" >       48      211      298      299      309 </v>
   <v type="int" >       48      212      229      230      310 </v>
   <v type="int" >       48      212      213      230      310 </v>
   <v type="int" >       48      212      213      297      310 </v>
   <v type="int" >       48      212      229      309      310 </v>
   <v type="int" >       48      212      298      309      310 </v>
   <v type="int" >       48      212      297      298      310 </v>
   <v type="int" >       48      213      230      231      311 </v>
   <v type="int" >       48      213      214      231      311 </v>
   <v type="int" >       48      213      214      296      311 </v>
   <v type="int" >       48      213      230      310      311 </v>
   <v type="int" >       48      213      297      310      311 </v>
   <v type="int" >       48      213      296      297      311 </v>
   <v type="int" >       48      214      231      232      312 </v>
   <v type="int" >       48      214      215      232      312 </v>
   <v type="int" >       48      214      215      295      312 </v>
   <v type="int" >       48      214      231      311      312 </v>
   <v type="int" >       48      214      296      311      312 </v>
   <v type="int" >       48      214      295      296      312 </v>
   <v type="int" >       48      215      232      233      313 </v>
   <v type="int" >       48      215      216      233      313 </v>
   <v type="int" >       48      215      216      294      313 </v>
   <v type="int" >       48      215      232      312      313 </v>
   <v type="int" >       48      215      295      312      313 </v>
   <v type="int" >       48      215      294      295      313 </v>
   <v type="int" >       48      216      233      234      314 </v>
   <v type="int" >       48      216      217      234      314 </v>
   <v type="int" >       48      216      217      293      314 </v>
   <v type="int" >       48      216      233      313      314 </v>
   <v type="int" >       48      216      294      313      314 </v>
   <v type="int" >       48      216      293      294      314 </v>
   <v type="int" >       24      217      217      234      315 </v>
   <v type="int" >       24      217      217      218      315 </v>
   <v type="int" >       48      217      218      292      315 </v>
   <v type="int" >       48      217      234      314      315 </v>
   <v type="int" >       48      217      293      314      315 </v>
   <v type="int" >       48      217      292      293      315 </v>
   <v type="int" >       24      218      292      292      315 </v>
   <v type="int" >       24      218      291      292      292 </v>
   <v type="int" >       48       17       18       34      172 </v>
   <v type="int" >       48       17       34       35      172 </v>
   <v type="int" >       48       17       35      171      172 </v>
   <v type="int" >       48       81       82       99      219 </v>
   <v type="int" >       48       81       82      202      219 </v>
   <v type="int" >       48       62       81       82      202 </v>
   <v type="int" >       48       99      219      220      235 </v>
   <v type="int" >       24      219      220      220      235 </v>
   <v type="int" >       24      219      220      220      300 </v>
   <v type="int" >       48       82       99      219      220 </v>
   <v type="int" >       48       82      202      219      220 </v>
   <v type="int" >       48      220      235      236      316 </v>
   <v type="int" >       48      220      221      236      316 </v>
   <v type="int" >       48      220      221      301      316 </v>
   <v type="int" >       24      220      220      235      316 </v>
   <v type="int" >       24      220      220      300      316 </v>
   <v type="int" >       48      220      300      301      316 </v>
   <v type="int" >       48      221      236      237      317 </v>
   <v type="int" >       48      221      222      237      317 </v>
   <v type="int" >       48      221      222      302      317 </v>
   <v type="int" >       48      221      236      316      317 </v>
   <v type="int" >       48      221      301      316      317 </v>
   <v type="int" >       48      221      301      302      317 </v>
   <v type="int" >       48      222      237      238      318 </v>
   <v type="int" >       48      222      223      238      318 </v>
   <v type="int" >       48      222      223      303      318 </v>
   <v type="int" >       48      222      237      317      318 </v>
   <v type="int" >       48      222      302      317      318 </v>
   <v type="int" >       48      222      302      303      318 </v>
   <v type="int" >       48      223      238      239      319 </v>
   <v type="int" >       48      223      224      239      319 </v>
   <v type="int" >       48      223      224      304      319 </v>
   <v type="int" >       48      223      238      318      319 </v>
   <v type="int" >       48      223      303      318      319 </v>
   <v type="int" >       48      223      303      304      319 </v>
   <v type="int" >       48      224      239      240      320 </v>
   <v type="int" >       48      224      225      240      320 </v>
   <v type="int" >       48      224      225      305      320 </v>
   <v type="int" >       48      224      239      319      320 </v>
   <v type="int" >       48      224      304      319      320 </v>
   <v type="int" >       48      224      304      305      320 </v>
   <v type="int" >       48      225      240      241      321 </v>
   <v type="int" >       48      225      226      241      321 </v>
   <v type="int" >       48      225      226      306      321 </v>
   <v type="int" >       48      225      240      320      321 </v>
   <v type="int" >       48      225      305      320      321 </v>
   <v type="int" >       48      225      305      306      321 </v>
   <v type="int" >       48      226      241      242      322 </v>
   <v type="int" >       48      226      227      242      322 </v>
   <v type="int" >       48      226      227      307      322 </v>
   <v type="int" >       48      226      241      321      322 </v>
   <v type="int" >       48      226      306      321      322 </v>
   <v type="int" >       48      226      306      307      322 </v>
   <v type="int" >       48      227      242      243      323 </v>
   <v type="int" >       48      227      228      243      323 </v>
   <v type="int" >       48      227      228      308      323 </v>
   <v type="int" >       48      227      242      322      323 </v>
   <v type="int" >       48      227      307      322      323 </v>
   <v type="int" >       48      227      307      308      323 </v>
   <v type="int" >       48      228      243      244      324 </v>
   <v type="int" >       48      228      229      244      324 </v>
   <v type="int" >       48      228      229      309      324 </v>
   <v type="int" >       48      228      243      323      324 </v>
   <v type="int" >       48      228      308      323      324 </v>
   <v type="int" >       48      228      308      309      324 </v>
   <v type="int" >       48      229      244      245      325 </v>
   <v type="int" >       48      229      230      245      325 </v>
   <v type="int" >       48      229      230      310      325 </v>
   <v type="int" >       48      229      244      324      325 </v>
   <v type="int" >       48      229      309      324      325 </v>
   <v type="int" >       48      229      309      310      325 </v>
   <v type="int" >       48      230      245      246      326 </v>
   <v type="int" >       48      230      231      246      326 </v>
   <v type="int" >       48      230      231      311      326 </v>
   <v type="int" >       48      230      245      325      326 </v>
   <v type="int" >       48      230      310      325      326 </v>
   <v type="int" >       48      230      310      311      326 </v>
   <v type="int" >       48      231      246      247      327 </v>
   <v type="int" >       48      231      232      247      327 </v>
   <v type="int" >       48      231      232      312      327 </v>
   <v type="int" >       48      231      246      326      327 </v>
   <v type="int" >       48      231      311      326      327 </v>
   <v type="int" >       48      231      311      312      327 </v>
   <v type="int" >       48      232      247      248      328 </v>
   <v type="int" >       48      232      233      248      328 </v>
   <v type="int" >       48      232      233      313      328 </v>
   <v type="int" >       48      232      247      327      328 </v>
   <v type="int" >       48      232      312      327      328 </v>
   <v type="int" >       48      232      312      313      328 </v>
   <v type="int" >       24      233      233      248      329 </v>
   <v type="int" >       24      233      233      234      329 </v>
   <v type="int" >       48      233      234      314      329 </v>
   <v type="int" >       48      233      248      328      329 </v>
   <v type="int" >       48      233      313      328      329 </v>
   <v type="int" >       48      233      313      314      329 </v>
   <v type="int" >       24      234      314      314      329 </v>
   <v type="int" >       24      234      314      314      315 </v>
   <v type="int" >       48       18       19       33      173 </v>
   <v type="int" >       48       18       33       34      173 </v>
   <v type="int" >       48       18       34      172      173 </v>
   <v type="int" >       48       99      100      115      235 </v>
   <v type="int" >       48       99      100      220      235 </v>
   <v type="int" >       48       82       99      100      220 </v>
   <v type="int" >       48      115      235      236      249 </v>
   <v type="int" >       24      235      236      236      249 </v>
   <v type="int" >       24      235      236      236      316 </v>
   <v type="int" >       48      100      115      235      236 </v>
   <v type="int" >       48      100      220      235      236 </v>
   <v type="int" >       48      236      249      250      330 </v>
   <v type="int" >       48      236      237      250      330 </v>
   <v type="int" >       48      236      237      317      330 </v>
   <v type="int" >       24      236      236      249      330 </v>
   <v type="int" >       24      236      236      316      330 </v>
   <v type="int" >       48      236      316      317      330 </v>
   <v type="int" >       48      237      250      251      331 </v>
   <v type="int" >       48      237      238      251      331 </v>
   <v type="int" >       48      237      238      318      331 </v>
   <v type="int" >       48      237      250      330      331 </v>
   <v type="int" >       48      237      317      330      331 </v>
   <v type="int" >       48      237      317      318      331 </v>
   <v type="int" >       48      238      251      252      332 </v>
   <v type="int" >       48      238      239      252      332 </v>
   <v type="int" >       48      238      239      319      332 </v>
   <v type="int" >       48      238      251      331      332 </v>
   <v type="int" >       48      238      318      331      332 </v>
   <v type="int" >       48      238      318      319      332 </v>
   <v type="int" >       48      239      252      253      333 </v>
   <v type="int" >       48      239      240      253      333 </v>
   <v type="int" >       48      239      240      320      333 </v>
   <v type="int" >       48      239      252      332      333 </v>
   <v type="int" >       48      239      319      332      333 </v>
   <v type="int" >       48      239      319      320      333 </v>
   <v type="int" >       48      240      253      254      334 </v>
   <v type="int" >       48      240      241      254      334 </v>
   <v type="int" >       48      240      241      321      334 </v>
   <v type="int" >       48      240      253      333      334 </v>
   <v type="int" >       48      240      320      333      334 </v>
   <v type="int" >       48      240      320      321      334 </v>
   <v type="int" >       48      241      254      255      335 </v>
   <v type="int" >       48      241      242      255      335 </v>
   <v type="int" >       48      241      242      322      335 </v>
   <v type="int" >       48      241      254      334      335 </v>
   <v type="int" >       48      241      321      334      335 </v>
   <v type="int" >       48      241      321      322      335 </v>
   <v type="int" >       48      242      255      256      336 </v>
   <v type="int" >       48      242      243      256      336 </v>
   <v type="int" >       48      242      243      323      336 </v>
   <v type="int" >       48      242      255      335      336 </v>
   <v type="int" >       48      242      322      335      336 </v>
   <v type="int" >       48      242      322      323      336 </v>
   <v type="int" >       48      243      256      257      337 </v>
   <v type="int" >       48      243      244      257      337 </v>
   <v type="int" >       48      243      244      324      337 </v>
   <v type="int" >       48      243      256      336      337 </v>
   <v type="int" >       48      243      323      336      337 </v>
   <v type="int" >       48      243      323      324      337 </v>
   <v type="int" >       48      244      257      258      338 </v>
[...]
   <v type="int" >       48      122      135      255      256 </v>
   <v type="int" >       48      121      122      135      255 </v>
   <v type="int" >       48      122      135      136      256 </v>
   <v type="int" >       48      121      134      254      255 </v>
   <v type="int" >       48      120      121      134      254 </v>
   <v type="int" >       48      121      134      135      255 </v>
   <v type="int" >       24      115      115      128      249 </v>
   <v type="int" >       24      114      115      115      128 </v>
   <v type="int" >       48      115      128      129      249 </v>
   <v type="int" >       48        8       20       21       31 </v>
   <v type="int" >       24      139      259      259      260 </v>
   <v type="int" >       48      138      258      259      270 </v>
   <v type="int" >       24      139      259      259      270 </v>
   <v type="int" >       48      138      139      259      270 </v>
   <v type="int" >       48      137      257      258      269 </v>
   <v type="int" >       48      138      258      269      270 </v>
   <v type="int" >       48      137      138      258      269 </v>
   <v type="int" >       48      136      256      257      268 </v>
   <v type="int" >       48      137      257      268      269 </v>
   <v type="int" >       48      136      137      257      268 </v>
   <v type="int" >       48      135      255      256      267 </v>
   <v type="int" >       48      136      256      267      268 </v>
   <v type="int" >       48      135      136      256      267 </v>
   <v type="int" >       48      134      254      255      266 </v>
   <v type="int" >       48      135      255      266      267 </v>
   <v type="int" >       48      134      135      255      266 </v>
   <v type="int" >       24      129      129      249      261 </v>
   <v type="int" >       24      128      129      129      249 </v>
   <v type="int" >        6      455      455      455      455 </v>
   <v type="int" >       48      134      135      146      266 </v>
   <v type="int" >       48      146      266      267      276 </v>
   <v type="int" >       48      135      146      266      267 </v>
   <v type="int" >       48      146      147      156      276 </v>
   <v type="int" >       48      146      147      267      276 </v>
   <v type="int" >       48      135      146      147      267 </v>
   <v type="int" >       48      156      276      277      284 </v>
   <v type="int" >       48      147      156      276      277 </v>
   <v type="int" >       48      147      267      276      277 </v>
   <v type="int" >       24      156      156      157      284 </v>
   <v type="int" >       48      156      157      277      284 </v>
   <v type="int" >       48      147      156      157      277 </v>
   <v type="int" >       24      157      277      277      284 </v>
   <v type="int" >       48        8        9       21       31 </v>
   <v type="int" >       48        9       21       30       31 </v>
   <v type="int" >       24      138      138      139      270 </v>
   <v type="int" >       48      138      149      269      270 </v>
   <v type="int" >       48      137      138      149      269 </v>
   <v type="int" >       24      138      138      149      270 </v>
   <v type="int" >       48      137      148      268      269 </v>
   <v type="int" >       48      136      137      148      268 </v>
   <v type="int" >       48      137      148      149      269 </v>
   <v type="int" >       48      136      147      267      268 </v>
   <v type="int" >       48      135      136      147      267 </v>
   <v type="int" >       48      136      147      148      268 </v>
   <v type="int" >       24      129      129      140      261 </v>
   <v type="int" >       24      128      129      129      140 </v>
   <v type="int" >       48      129      140      141      261 </v>
   <v type="int" >       48        9       21       22       30 </v>
   <v type="int" >       24      149      269      269      270 </v>
   <v type="int" >       48      148      268      269      278 </v>
   <v type="int" >       24      149      269      269      278 </v>
   <v type="int" >       48      148      149      269      278 </v>
   <v type="int" >       48      147      267      268      277 </v>
   <v type="int" >       48      148      268      277      278 </v>
   <v type="int" >       48      147      148      268      277 </v>
   <v type="int" >       24      141      141      261      271 </v>
   <v type="int" >       24      140      141      141      261 </v>
   <v type="int" >       48      147      148      157      277 </v>
   <v type="int" >       24      157      277      277      278 </v>
   <v type="int" >       48      148      157      277      278 </v>
   <v type="int" >       24      148      148      157      278 </v>
   <v type="int" >       48        9       10       22       30 </v>
   <v type="int" >       48       10       22       29       30 </v>
   <v type="int" >       24      148      148      149      278 </v>
   <v type="int" >       24      141      141      150      271 </v>
   <v type="int" >       24      140      141      141      150 </v>
   <v type="int" >       48      141      150      151      271 </v>
   <v type="int" >       48       10       22       23       29 </v>
   <v type="int" >       24      151      151      271      279 </v>
   <v type="int" >       24      150      151      151      271 </v>
   <v type="int" >       48       10       11       23       29 </v>
   <v type="int" >       48       11       23       28       29 </v>
   <v type="int" >       24      151      151      158      279 </v>
   <v type="int" >       24      150      151      151      158 </v>
   <v type="int" >       48      151      158      159      279 </v>
   <v type="int" >       48       11       23       24       28 </v>
   <v type="int" >       24      159      159      279      285 </v>
   <v type="int" >       24      158      159      159      279 </v>
   <v type="int" >       48       11       12       24       28 </v>
   <v type="int" >       48       12       24       27       28 </v>
   <v type="int" >       24      159      159      164      285 </v>
   <v type="int" >       24      158      159      159      164 </v>
   <v type="int" >       48      159      164      165      285 </v>
   <v type="int" >       48       12       24       25       27 </v>
   <v type="int" >       24      165      165      285      289 </v>
   <v type="int" >       24      164      165      165      285 </v>
   <v type="int" >       48       12       13       25       27 </v>
   <v type="int" >       48       13       25       26       27 </v>
   <v type="int" >       24      165      165      168      289 </v>
   <v type="int" >       24      164      165      165      168 </v>
   <v type="int" >       48      165      168      169      289 </v>
   <v type="int" >       48       13       25       26       26 </v>
   <v type="int" >       12      169      169      289      289 </v>
   <v type="int" >       24      168      169      169      289 </v>
   <v type="int" >       24       13       13       26       26 </v>
   <v type="int" >       12      168      168      169      169 </v>
   <v type="int" >       24        1        2        2       14 </v>
  </varray>
  <i name="volumeweight">      0.00001067 </i>
 </kpoints>
 <parameters>
  <separator name="general" >
   <i type="string" name="SYSTEM">Al atom</i>
   <i type="logical" name="LCOMPAT"> F  </i>
  </separator>
  <separator name="electronic" >
   <i type="string" name="PREC">normal</i>
   <i name="ENMAX">    400.00000000</i>
   <i name="ENAUG">    291.05200000</i>
   <i name="EDIFF">      0.00010000</i>
   <i type="int" name="IALGO">    38</i>
   <i type="int" name="IWAVPR">    10</i>
   <i type="int" name="NBANDS">     5</i>
   <i type="int" name="NBANDSLOW">    -1</i>
   <i type="int" name="NBANDSHIGH">    -1</i>
   <i name="NELECT">      3.00000000</i>
   <i type="int" name="TURBO">     0</i>
   <i type="int" name="IRESTART">     0</i>
   <i type="int" name="NREBOOT">     0</i>
   <i type="int" name="NMIN">     0</i>
   <i name="EREF">      0.00000000</i>
   <separator name="electronic smearing" >
    <i type="int" name="ISMEAR">    -5</i>
    <i name="SIGMA">      0.20000000</i>
    <i name="KSPACING">      0.50000000</i>
    <i type="logical" name="KGAMMA"> T  </i>
    <i type="logical" name="KBLOWUP"> T  </i>
   </separator>
   <separator name="electronic projectors" >
    <i type="logical" name="LREAL"> F  </i>
    <v name="ROPT">      0.00000000</v>
    <i type="int" name="LMAXPAW">  -100</i>
    <i type="int" name="LMAXMIX">     2</i>
    <i type="logical" name="NLSPLINE"> F  </i>
   </separator>
   <separator name="electronic startup" >
    <i type="int" name="ISTART">     1</i>
    <i type="int" name="ICHARG">     0</i>
    <i type="int" name="INIWAV">     1</i>
   </separator>
   <separator name="electronic spin" >
    <i type="int" name="ISPIN">     1</i>
    <i type="logical" name="LNONCOLLINEAR"> F  </i>
    <v name="MAGMOM">      1.00000000</v>
    <i name="NUPDOWN">     -1.00000000</i>
    <i type="logical" name="LSORBIT"> F  </i>
    <v name="SAXIS">      0.00000000      0.00000000      1.00000000</v>
    <i type="logical" name="LSPIRAL"> F  </i>
    <v name="QSPIRAL">      0.00000000      0.00000000      0.00000000</v>
    <i type="logical" name="LZEROZ"> F  </i>
   </separator>
   <separator name="electronic exchange-correlation" >
    <i type="logical" name="LASPH"> F  </i>
    <i type="logical" name="LMETAGGA"> F  </i>
   </separator>
   <separator name="electronic convergence" >
    <i type="int" name="NELM">    60</i>
    <i type="int" name="NELMDL">     0</i>
    <i type="int" name="NELMIN">     2</i>
    <i name="ENINI">    400.00000000</i>
    <separator name="electronic convergence detail" >
     <i type="logical" name="LDIAG"> T  </i>
     <i type="logical" name="LSUBROT"> F  </i>
     <i name="WEIMIN">      0.00000000</i>
     <i name="EBREAK">      0.00000500</i>
     <i name="DEPER">      0.30000000</i>
     <i type="int" name="NRMM">     4</i>
     <i name="TIME">      0.40000000</i>
    </separator>
   </separator>
   <separator name="electronic mixer" >
    <i name="AMIX">      0.40000000</i>
    <i name="BMIX">      1.00000000</i>
    <i name="AMIN">      0.10000000</i>
    <i name="AMIX_MAG">      1.60000000</i>
    <i name="BMIX_MAG">      1.00000000</i>
    <separator name="electronic mixer details" >
     <i type="int" name="IMIX">     4</i>
     <i type="logical" name="MIXFIRST"> F  </i>
     <i type="int" name="MAXMIX">   -45</i>
     <i name="WC">    100.00000000</i>
     <i type="int" name="INIMIX">     1</i>
     <i type="int" name="MIXPRE">     1</i>
     <i type="int" name="MREMOVE">     5</i>
    </separator>
   </separator>
   <separator name="electronic dipolcorrection" >
    <i type="logical" name="LDIPOL"> F  </i>
    <i type="logical" name="LMONO"> F  </i>
    <i type="int" name="IDIPOL">     0</i>
    <i name="EPSILON">      1.00000000</i>
    <v name="DIPOL">   -100.00000000   -100.00000000   -100.00000000</v>
    <i name="EFIELD">      0.00000000</i>
   </separator>
  </separator>
  <separator name="grids" >
   <i type="int" name="NGX">    60</i>
   <i type="int" name="NGY">    60</i>
   <i type="int" name="NGZ">    60</i>
   <i type="int" name="NGXF">   120</i>
   <i type="int" name="NGYF">   120</i>
   <i type="int" name="NGZF">   120</i>
   <i type="logical" name="ADDGRID"> F  </i>
  </separator>
  <separator name="ionic" >
   <i type="int" name="NSW">     0</i>
   <i type="int" name="IBRION">    -1</i>
   <i type="int" name="MDALGO">     0</i>
   <i type="int" name="ISIF">     2</i>
   <i name="PSTRESS">      0.00000000</i>
   <i name="EDIFFG">      0.00100000</i>
   <i type="int" name="NFREE">     0</i>
   <i name="POTIM">      0.50000000</i>
   <i name="SMASS">     -3.00000000</i>
   <i name="SCALEE">      1.00000000</i>
  </separator>
  <separator name="ionic md" >
   <i name="TEBEG">      0.00010000</i>
   <i name="TEEND">      0.00010000</i>
   <i type="int" name="NBLOCK">     1</i>
   <i type="int" name="KBLOCK">     1</i>
   <i type="int" name="NPACO">   256</i>
   <i name="APACO">     10.00000000</i>
  </separator>
  <separator name="symmetry" >
   <i type="int" name="ISYM">     2</i>
   <i name="SYMPREC">      0.00001000</i>
  </separator>
  <separator name="dos" >
   <i type="int" name="LORBIT">     0</i>
   <v name="RWIGS">     -1.00000000</v>
   <i type="int" name="NEDOS">   301</i>
   <i name="EMIN">     10.00000000</i>
   <i name="EMAX">    -10.00000000</i>
   <i name="EFERMI">      0.00000000</i>
  </separator>
  <separator name="writing" >
   <i type="int" name="NWRITE">     2</i>
   <i type="logical" name="LWAVE"> T  </i>
   <i type="logical" name="LDOWNSAMPLE"> F  </i>
   <i type="logical" name="LCHARG"> F  </i>
   <i type="logical" name="LPARD"> F  </i>
   <i type="logical" name="LVTOT"> F  </i>
   <i type="logical" name="LVHAR"> F  </i>
   <i type="logical" name="LELF"> F  </i>
   <i type="logical" name="LOPTICS"> F  </i>
   <v name="STM">      0.00000000      0.00000000      0.00000000      0.00000000      0.00000000      0.00000000      0.00000000</v>
  </separator>
  <separator name="performance" >
   <i type="int" name="NPAR">     1</i>
   <i type="int" name="NSIM">     1</i>
   <i type="int" name="NBLK">    -1</i>
   <i type="logical" name="LPLANE"> T  </i>
   <i type="logical" name="LSCALAPACK"> T  </i>
   <i type="logical" name="LSCAAWARE"> F  </i>
   <i type="logical" name="LSCALU"> F  </i>
   <i type="logical" name="LASYNC"> F  </i>
   <i type="logical" name="LORBITALREAL"> F  </i>
  </separator>
  <separator name="miscellaneous" >
   <i type="int" name="IDIOT">     3</i>
   <i type="int" name="PHON_NSTRUCT">    -1</i>
   <i type="logical" name="LMUSIC"> F  </i>
   <v name="POMASS">     26.98100000</v>
   <v name="DARWINR">      0.00000000</v>
   <v name="DARWINV">      1.00000000</v>
   <i type="logical" name="LCORR"> T  </i>
  </separator>
  <i type="logical" name="GGA_COMPAT"> T  </i>
  <i type="logical" name="LBERRY"> F  </i>
  <i type="int" name="ICORELEVEL">     0</i>
  <i type="logical" name="LDAU"> F  </i>
  <i type="int" name="I_CONSTRAINED_M">     0</i>
  <separator name="electronic exchange-correlation" >
   <i type="string" name="GGA">--</i>
   <i type="int" name="VOSKOWN">     0</i>
   <i type="logical" name="LHFCALC"> F  </i>
   <i type="string" name="PRECFOCK"></i>
   <i type="logical" name="LSYMGRAD"> F  </i>
   <i type="logical" name="LHFONE"> F  </i>
   <i type="logical" name="LRHFCALC"> F  </i>
   <i type="logical" name="LTHOMAS"> F  </i>
   <i type="logical" name="LMODELHF"> F  </i>
   <i type="logical" name="LFOCKACE"> F  </i>
   <i name="ENCUT4O">     -1.00000000</i>
   <i type="int" name="EXXOEP">     0</i>
   <i type="int" name="FOURORBIT">     0</i>
   <i name="AEXX">      0.00000000</i>
   <i name="HFALPHA">      0.00000000</i>
   <i name="MCALPHA">      0.00000000</i>
   <i name="ALDAX">      1.00000000</i>
   <i name="AGGAX">      1.00000000</i>
   <i name="ALDAC">      1.00000000</i>
   <i name="AGGAC">      1.00000000</i>
   <i type="int" name="NKREDX">     1</i>
   <i type="int" name="NKREDY">     1</i>
   <i type="int" name="NKREDZ">     1</i>
   <i type="logical" name="SHIFTRED"> F  </i>
   <i type="logical" name="ODDONLY"> F  </i>
   <i type="logical" name="EVENONLY"> F  </i>
   <i type="int" name="LMAXFOCK">     0</i>
   <i type="int" name="NMAXFOCKAE">     0</i>
   <i type="logical" name="LFOCKAEDFT"> F  </i>
   <i name="HFSCREEN">      0.00000000</i>
   <i name="HFSCREENC">      0.00000000</i>
   <i type="int" name="NBANDSGWLOW">     0</i>
  </separator>
  <separator name="vdW DFT" >
   <i type="logical" name="LUSE_VDW"> F  </i>
   <i type="int" name="IVDW_NL">     1</i>
   <i type="logical" name="LSPIN_VDW"> F  </i>
   <i name="Zab_VDW">     -0.84910000</i>
   <i name="PARAM1">      0.12340000</i>
   <i name="PARAM2">      1.00000000</i>
   <i name="PARAM3">      0.00000000</i>
  </separator>
  <separator name="model GW" >
   <i type="int" name="MODEL_GW">     0</i>
   <i name="MODEL_EPS0">    661.67904967</i>
   <i name="MODEL_ALPHA">      1.00000000</i>
  </separator>
  <separator name="linear response parameters" >
   <i type="logical" name="LEPSILON"> F  </i>
   <i type="logical" name="LRPA"> F  </i>
   <i type="logical" name="LNABLA"> F  </i>
   <i type="logical" name="LVEL"> F  </i>
   <i name="CSHIFT">      0.10000000</i>
   <i name="OMEGAMAX">     -1.00000000</i>
   <i name="DEG_THRESHOLD">      0.00200000</i>
   <i name="RTIME">     -0.10000000</i>
   <i name="WPLASMAI">      0.00000000</i>
   <v name="DFIELD">      0.00000000      0.00000000      0.00000000</v>
   <v name="WPLASMA">      0.00000000      0.00000000      0.00000000      0.00000000      0.00000000      0.00000000      0.00000000      0.00000000      0.00000000</v>
  </separator>
  <separator name="orbital magnetization" >
   <i type="logical" name="NUCIND"> F  </i>
   <v name="MAGPOS">      0.00000000      0.00000000      0.00000000</v>
   <i type="logical" name="LNICSALL"> T  </i>
   <i type="logical" name="ORBITALMAG"> F  </i>
   <i type="logical" name="LMAGBLOCH"> F  </i>
   <i type="logical" name="LCHIMAG"> F  </i>
   <i type="logical" name="LGAUGE"> T  </i>
   <i type="int" name="MAGATOM">     0</i>
   <v name="MAGDIPOL">      0.00000000      0.00000000      0.00000000</v>
   <v name="AVECCONST">      0.00000000      0.00000000      0.00000000</v>
  </separator>
  <separator name="response functions" >
   <i type="logical" name="LALL_IN_ONE"> F  </i>
   <i type="int" name="IALL_IN_ONE">    -1</i>
   <i type="int" name="NBANDS_WAVE">    -1</i>
   <i type="logical" name="LFINITE_TEMPERATURE"> F  </i>
   <i type="logical" name="LADDER"> F  </i>
   <i type="logical" name="LRPAFORCE"> F  </i>
   <i type="logical" name="LFXC"> F  </i>
   <i type="logical" name="LHARTREE"> T  </i>
   <i type="int" name="IBSE">     0</i>
   <v type="int" name="KPOINT">    -1     0     0     0</v>
   <i type="logical" name="LTCTC"> F  </i>
   <i type="logical" name="LTCTE"> F  </i>
   <i type="logical" name="LTETE"> F  </i>
   <i type="logical" name="LTRIPLET"> F  </i>
   <i type="logical" name="LFXCEPS"> F  </i>
   <i type="logical" name="LFXHEG"> F  </i>
   <i type="int" name="NATURALO">     2</i>
   <i type="logical" name="LHOLEGF"> F  </i>
   <i type="logical" name="L2ORDER"> F  </i>
   <i type="logical" name="LDMP1"> F  </i>
   <i type="logical" name="LMP2LT"> F  </i>
   <i type="logical" name="LSMP2LT"> F  </i>
   <i type="logical" name="LGWLF"> F  </i>
   <i name="ENCUTGW">     -1.60000002</i>
   <i name="ENCUTGWSOFT">     -1.60000002</i>
   <i name="ENCUTLF">     -1.00000000</i>
   <i type="logical" name="LESF_SPLINES"> F  </i>
   <i type="int" name="LMAXMP2">    -1</i>
   <i name="SCISSOR">      0.00000000</i>
   <i type="int" name="NOMEGA">     0</i>
   <i type="int" name="NOMEGAR">     0</i>
   <i type="int" name="NBANDSGW">    -1</i>
   <i type="int" name="NBANDSO">    -1</i>
   <i type="int" name="NBANDSV">    -1</i>
   <i type="int" name="NELMGW">     1</i>
   <i type="int" name="NELMHF">     1</i>
   <i type="int" name="DIM">     3</i>
   <i type="int" name="IESPILON">     4</i>
   <i type="int" name="ANTIRES">     0</i>
   <i name="OMEGAMAX">    -30.00000000</i>
   <i name="OMEGAMIN">    -30.00000000</i>
   <i name="OMEGATL">   -200.00000000</i>
   <i type="int" name="OMEGAGRID">     0</i>
   <i name="CSHIFT">     -0.10000000</i>
   <i type="logical" name="LSELFENERGY"> F  </i>
   <i type="logical" name="LSPECTRAL"> F  </i>
   <i type="logical" name="LSPECTRALGW"> F  </i>
   <i type="logical" name="LSINGLES"> F  </i>
   <i type="logical" name="LFERMIGW"> F  </i>
   <i type="logical" name="ODDONLYGW"> F  </i>
