<?xml version="1.0" encoding="ISO-8859-1"?>
<modeling>
 <generator>
  <i name="program" type="string">vasp </i>
  <i name="version" type="string">6.4.2  </i>
  <i name="subversion" type="string">20Jul23 (build Oct 18 2023 12:49:41) complex                          parallel </i>
  <i name="platform" type="string">LinuxGNU </i>
  <i name="date" type="string">2025 04 11 </i>
  <i name="time" type="string">08:36:27 </i>
 </generator>
 <incar>
  <i type="string" name="SYSTEM">Al atom</i>
  <i type="int" name="NSIM">     1</i>
  <i name="ENCUT">    400.00000000</i>
  <i type="int" name="ISMEAR">    -5</i>
  <i type="logical" name="LCHARG"> F  </i>
 </incar>
 <primitive_cell>
  <structure name="primitive_cell" >
   <crystal>
    <varray name="basis" >
     <v>       3.12117284       0.00000000       0.00000000 </v>
     <v>       1.56058642       2.70301497       0.00000000 </v>
     <v>       1.56058642       0.90100499       2.54842695 </v>
    </varray>
    <i name="volume">     21.50000000 </i>
    <varray name="rec_basis" >
     <v>       0.32039238      -0.18497863      -0.13079964 </v>
     <v>       0.00000000       0.36995726      -0.13079964 </v>
     <v>       0.00000000       0.00000000       0.39239893 </v>
    </varray>
   </crystal>
   <varray name="positions" >
    <v>       0.00000000       0.00000000       0.00000000 </v>
   </varray>
  </structure>
  <varray name="primitive_index" >
   <v type="int" >        1 </v>
  </varray>
 </primitive_cell>
 <kpoints>
  <generation param="Gamma">
   <v type="int" name="divisions">      25       25       25 </v>
   <v name="usershift">      0.00000000       0.00000000       0.00000000 </v>
   <v name="genvec1">      0.04000000       0.00000000       0.00000000 </v>
   <v name="genvec2">      0.00000000       0.04000000       0.00000000 </v>
   <v name="genvec3">      0.00000000       0.00000000       0.04000000 </v>
   <v name="shift">      0.00000000       0.00000000       0.00000000 </v>
  </generation>
  <varray name="kpointlist" >
   <v>       0.00000000       0.00000000       0.00000000 </v>
   <v>       0.04000000       0.00000000       0.00000000 </v>
   <v>       0.08000000       0.00000000       0.00000000 </v>
   <v>       0.12000000       0.00000000       0.00000000 </v>
   <v>       0.16000000       0.00000000       0.00000000 </v>
   <v>       0.20000000       0.00000000       0.00000000 </v>
   <v>       0.24000000       0.00000000       0.00000000 </v>
   <v>       0.28000000       0.00000000       0.00000000 </v>
   <v>       0.32000000       0.00000000       0.00000000 </v>
   <v>       0.36000000       0.00000000       0.00000000 </v>
   <v>       0.40000000       0.00000000       0.00000000 </v>
   <v>       0.44000000       0.00000000       0.00000000 </v>
   <v>       0.48000000       0.00000000       0.00000000 </v>
   <v>       0.04000000       0.04000000       0.00000000 </v>
   <v>       0.08000000       0.04000000       0.00000000 </v>
   <v>       0.12000000       0.04000000       0.00000000 </v>
   <v>       0.16000000       0.04000000       0.00000000 </v>
   <v>       0.20000000       0.04000000       0.00000000 </v>
   <v>       0.24000000       0.04000000       0.00000000 </v>
   <v>       0.28000000       0.04000000       0.00000000 </v>
   <v>       0.32000000       0.04000000       0.00000000 </v>
   <v>       0.36000000       0.04000000       0.00000000 </v>
   <v>       0.40000000       0.04000000       0.00000000 </v>
   <v>       0.44000000       0.04000000       0.00000000 </v>
   <v>       0.48000000       0.04000000       0.00000000 </v>
   <v>      -0.48000000       0.04000000       0.00000000 </v>
   <v>      -0.44000000       0.04000000       0.00000000 </v>
   <v>      -0.40000000       0.04000000       0.00000000 </v>
   <v>      -0.36000000       0.04000000       0.00000000 </v>
   <v>      -0.32000000       0.04000000       0.00000000 </v>
   <v>      -0.28000000       0.04000000       0.00000000 </v>
   <v>      -0.24000000       0.04000000       0.00000000 </v>
   <v>      -0.20000000       0.04000000       0.00000000 </v>
   <v>      -0.16000000       0.04000000       0.00000000 </v>
   <v>      -0.12000000       0.04000000       0.00000000 </v>
   <v>      -0.08000000       0.04000000       0.00000000 </v>
   <v>      -0.04000000       0.04000000       0.00000000 </v>
   <v>       0.08000000       0.08000000       0.00000000 </v>
   <v>       0.12000000       0.08000000       0.00000000 </v>
   <v>       0.16000000       0.08000000       0.00000000 </v>
   <v>       0.20000000       0.08000000       0.00000000 </v>
   <v>       0.24000000       0.08000000       0.00000000 </v>
   <v>       0.28000000       0.08000000       0.00000000 </v>
   <v>       0.32000000       0.08000000       0.00000000 </v>
   <v>       0.36000000       0.08000000       0.00000000 </v>
   <v>       0.40000000       0.08000000       0.00000000 </v>
   <v>       0.44000000       0.08000000       0.00000000 </v>
   <v>       0.48000000       0.08000000       0.00000000 </v>
   <v>      -0.48000000       0.08000000       0.00000000 </v>
   <v>      -0.44000000       0.08000000       0.00000000 </v>
   <v>      -0.40000000       0.08000000       0.00000000 </v>
   <v>      -0.36000000       0.08000000       0.00000000 </v>
   <v>      -0.32000000       0.08000000       0.00000000 </v>
   <v>      -0.28000000       0.08000000       0.00000000 </v>
   <v>      -0.24000000       0.08000000       0.00000000 </v>
   <v>      -0.20000000       0.08000000       0.00000000 </v>
   <v>      -0.16000000       0.08000000       0.00000000 </v>
   <v>      -0.12000000       0.08000000       0.00000000 </v>
   <v>      -0.08000000       0.08000000       0.00000000 </v>
   <v>       0.12000000       0.12000000       0.00000000 </v>
   <v>       0.16000000       0.12000000       0.00000000 </v>
   <v>       0.20000000       0.12000000       0.00000000 </v>
   <v>       0.24000000       0.12000000       0.00000000 </v>
   <v>       0.28000000       0.12000000       0.00000000 </v>
   <v>       0.32000000       0.12000000       0.00000000 </v>
   <v>       0.36000000       0.12000000       0.00000000 </v>
   <v>       0.40000000       0.12000000       0.00000000 </v>
   <v>       0.44000000       0.12000000       0.00000000 </v>
   <v>       0.48000000       0.12000000       0.00000000 </v>
   <v>      -0.48000000       0.12000000       0.00000000 </v>
   <v>      -0.44000000       0.12000000       0.00000000 </v>
   <v>      -0.40000000       0.12000000       0.00000000 </v>
   <v>      -0.36000000       0.12000000       0.00000000 </v>
   <v>      -0.32000000       0.12000000       0.00000000 </v>
   <v>      -0.28000000       0.12000000       0.00000000 </v>
   <v>      -0.24000000       0.12000000       0.00000000 </v>
   <v>      -0.20000000       0.12000000       0.00000000 </v>
   <v>      -0.16000000       0.12000000       0.00000000 </v>
   <v>      -0.12000000       0.12000000       0.00000000 </v>
   <v>       0.16000000       0.16000000       0.00000000 </v>
   <v>       0.20000000       0.16000000       0.00000000 </v>
   <v>       0.24000000       0.16000000       0.00000000 </v>
   <v>       0.28000000       0.16000000       0.00000000 </v>
   <v>       0.32000000       0.16000000       0.00000000 </v>
   <v>       0.36000000       0.16000000       0.00000000 </v>
   <v>       0.40000000       0.16000000       0.00000000 </v>
   <v>       0.44000000       0.16000000       0.00000000 </v>
   <v>       0.48000000       0.16000000       0.00000000 </v>
   <v>      -0.48000000       0.16000000       0.00000000 </v>
   <v>      -0.44000000       0.16000000       0.00000000 </v>
   <v>      -0.40000000       0.16000000       0.00000000 </v>
   <v>      -0.36000000       0.16000000       0.00000000 </v>
   <v>      -0.32000000       0.16000000       0.00000000 </v>
   <v>      -0.28000000       0.16000000       0.00000000 </v>
   <v>      -0.24000000       0.16000000       0.00000000 </v>
   <v>      -0.20000000       0.16000000       0.00000000 </v>
   <v>      -0.16000000       0.16000000       0.00000000 </v>
   <v>       0.20000000       0.20000000       0.00000000 </v>
   <v>       0.24000000       0.20000000       0.00000000 </v>
   <v>       0.28000000       0.20000000       0.00000000 </v>
   <v>       0.32000000       0.20000000       0.00000000 </v>
   <v>       0.36000000       0.20000000       0.00000000 </v>
   <v>       0.40000000       0.20000000       0.00000000 </v>
   <v>       0.44000000       0.20000000       0.00000000 </v>
   <v>       0.48000000       0.20000000       0.00000000 </v>
   <v>      -0.48000000       0.20000000       0.00000000 </v>
   <v>      -0.44000000       0.20000000       0.00000000 </v>
   <v>      -0.40000000       0.20000000       0.00000000 </v>
   <v>      -0.36000000       0.20000000       0.00000000 </v>
   <v>      -0.32000000       0.20000000       0.00000000 </v>
   <v>      -0.28000000       0.20000000       0.00000000 </v>
   <v>      -0.24000000       0.20000000       0.00000000 </v>
   <v>      -0.20000000       0.20000000       0.00000000 </v>
   <v>       0.24000000       0.24000000       0.00000000 </v>
   <v>       0.28000000       0.24000000       0.00000000 </v>
   <v>       0.32000000       0.24000000       0.00000000 </v>
   <v>       0.36000000       0.24000000       0.00000000 </v>
   <v>       0.40000000       0.24000000       0.00000000 </v>
   <v>       0.44000000       0.24000000       0.00000000 </v>
   <v>       0.48000000       0.24000000       0.00000000 </v>
   <v>      -0.48000000       0.24000000       0.00000000 </v>
   <v>      -0.44000000       0.24000000       0.00000000 </v>
   <v>      -0.40000000       0.24000000       0.00000000 </v>
   <v>      -0.36000000       0.24000000       0.00000000 </v>
   <v>      -0.32000000       0.24000000       0.00000000 </v>
   <v>      -0.28000000       0.24000000       0.00000000 </v>
   <v>      -0.24000000       0.24000000       0.00000000 </v>
   <v>       0.28000000       0.28000000       0.00000000 </v>
   <v>       0.32000000       0.28000000       0.00000000 </v>
   <v>       0.36000000       0.28000000       0.00000000 </v>
   <v>       0.40000000       0.28000000       0.00000000 </v>
   <v>       0.44000000       0.28000000       0.00000000 </v>
   <v>       0.48000000       0.28000000       0.00000000 </v>
   <v>      -0.48000000       0.28000000       0.00000000 </v>
   <v>      -0.44000000       0.28000000       0.00000000 </v>
   <v>      -0.40000000       0.28000000       0.00000000 </v>
   <v>      -0.36000000       0.28000000       0.00000000 </v>
   <v>      -0.32000000       0.28000000       0.00000000 </v>
   <v>      -0.28000000       0.28000000       0.00000000 </v>
   <v>       0.32000000       0.32000000       0.00000000 </v>
   <v>       0.36000000       0.32000000       0.00000000 </v>
   <v>       0.40000000       0.32000000       0.00000000 </v>
   <v>       0.44000000       0.32000000       0.00000000 </v>
   <v>       0.48000000       0.32000000       0.00000000 </v>
   <v>      -0.48000000       0.32000000       0.00000000 </v>
   <v>      -0.44000000       0.32000000       0.00000000 </v>
   <v>      -0.40000000       0.32000000       0.00000000 </v>
   <v>      -0.36000000       0.32000000       0.00000000 </v>
   <v>      -0.32000000       0.32000000       0.00000000 </v>
   <v>       0.36000000       0.36000000       0.00000000 </v>
   <v>       0.40000000       0.36000000       0.00000000 </v>
   <v>       0.44000000       0.36000000       0.00000000 </v>
   <v>       0.48000000       0.36000000       0.00000000 </v>
   <v>      -0.48000000       0.36000000       0.00000000 </v>
   <v>      -0.44000000       0.36000000       0.00000000 </v>
   <v>      -0.40000000       0.36000000       0.00000000 </v>
   <v>      -0.36000000       0.36000000       0.00000000 </v>
   <v>       0.40000000       0.40000000       0.00000000 </v>
   <v>       0.44000000       0.40000000       0.00000000 </v>
   <v>       0.48000000       0.40000000       0.00000000 </v>
   <v>      -0.48000000       0.40000000       0.00000000 </v>
   <v>      -0.44000000       0.40000000       0.00000000 </v>
   <v>      -0.40000000       0.40000000       0.00000000 </v>
   <v>       0.44000000       0.44000000       0.00000000 </v>
   <v>       0.48000000       0.44000000       0.00000000 </v>
   <v>      -0.48000000       0.44000000       0.00000000 </v>
   <v>      -0.44000000       0.44000000       0.00000000 </v>
   <v>       0.48000000       0.48000000       0.00000000 </v>
   <v>      -0.48000000       0.48000000       0.00000000 </v>
   <v>       0.12000000       0.08000000       0.04000000 </v>
   <v>       0.16000000       0.08000000       0.04000000 </v>
   <v>       0.20000000       0.08000000       0.04000000 </v>
   <v>       0.24000000       0.08000000       0.04000000 </v>
   <v>       0.28000000       0.08000000       0.04000000 </v>
   <v>       0.32000000       0.08000000       0.04000000 </v>
   <v>       0.36000000       0.08000000       0.04000000 </v>
   <v>       0.40000000       0.08000000       0.04000000 </v>
   <v>       0.44000000       0.08000000       0.04000000 </v>
   <v>       0.48000000       0.08000000       0.04000000 </v>
   <v>      -0.48000000       0.08000000       0.04000000 </v>
   <v>       0.16000000       0.12000000       0.04000000 </v>
   <v>       0.20000000       0.12000000       0.04000000 </v>
   <v>       0.24000000       0.12000000       0.04000000 </v>
   <v>       0.28000000       0.12000000       0.04000000 </v>
   <v>       0.32000000       0.12000000       0.04000000 </v>
   <v>       0.36000000       0.12000000       0.04000000 </v>
   <v>       0.40000000       0.12000000       0.04000000 </v>
   <v>       0.44000000       0.12000000       0.04000000 </v>
   <v>       0.48000000       0.12000000       0.04000000 </v>
   <v>      -0.48000000       0.12000000       0.04000000 </v>
   <v>      -0.44000000       0.12000000       0.04000000 </v>
   <v>      -0.40000000       0.12000000       0.04000000 </v>
   <v>      -0.36000000       0.12000000       0.04000000 </v>
   <v>      -0.32000000       0.12000000       0.04000000 </v>
   <v>      -0.28000000       0.12000000       0.04000000 </v>
   <v>      -0.24000000       0.12000000       0.04000000 </v>
   <v>      -0.20000000       0.12000000       0.04000000 </v>
   <v>      -0.16000000       0.12000000       0.04000000 </v>
   <v>      -0.12000000       0.12000000       0.04000000 </v>
   <v>      -0.08000000       0.12000000       0.04000000 </v>
   <v>       0.20000000       0.16000000       0.04000000 </v>
   <v>       0.24000000       0.16000000       0.04000000 </v>
   <v>       0.28000000       0.16000000       0.04000000 </v>
   <v>       0.32000000       0.16000000       0.04000000 </v>
   <v>       0.36000000       0.16000000       0.04000000 </v>
   <v>       0.40000000       0.16000000       0.04000000 </v>
   <v>       0.44000000       0.16000000       0.04000000 </v>
   <v>       0.48000000       0.16000000       0.04000000 </v>
   <v>      -0.48000000       0.16000000       0.04000000 </v>
   <v>      -0.44000000       0.16000000       0.04000000 </v>
   <v>      -0.40000000       0.16000000       0.04000000 </v>
   <v>      -0.36000000       0.16000000       0.04000000 </v>
   <v>      -0.32000000       0.16000000       0.04000000 </v>
   <v>      -0.28000000       0.16000000       0.04000000 </v>
   <v>      -0.24000000       0.16000000       0.04000000 </v>
   <v>      -0.20000000       0.16000000       0.04000000 </v>
   <v>      -0.16000000       0.16000000       0.04000000 </v>
   <v>      -0.12000000       0.16000000       0.04000000 </v>
   <v>       0.24000000       0.20000000       0.04000000 </v>
   <v>       0.28000000       0.20000000       0.04000000 </v>
   <v>       0.32000000       0.20000000       0.04000000 </v>
   <v>       0.36000000       0.20000000       0.04000000 </v>
   <v>       0.40000000       0.20000000       0.04000000 </v>
   <v>       0.44000000       0.20000000       0.04000000 </v>
   <v>       0.48000000       0.20000000       0.04000000 </v>
   <v>      -0.48000000       0.20000000       0.04000000 </v>
   <v>      -0.44000000       0.20000000       0.04000000 </v>
   <v>      -0.40000000       0.20000000       0.04000000 </v>
   <v>      -0.36000000       0.20000000       0.04000000 </v>
   <v>      -0.32000000       0.20000000       0.04000000 </v>
   <v>      -0.28000000       0.20000000       0.04000000 </v>
   <v>      -0.24000000       0.20000000       0.04000000 </v>
   <v>      -0.20000000       0.20000000       0.04000000 </v>
   <v>      -0.16000000       0.20000000       0.04000000 </v>
   <v>       0.28000000       0.24000000       0.04000000 </v>
   <v>       0.32000000       0.24000000       0.04000000 </v>
   <v>       0.36000000       0.24000000       0.04000000 </v>
   <v>       0.40000000       0.24000000       0.04000000 </v>
   <v>       0.44000000       0.24000000       0.04000000 </v>
   <v>       0.48000000       0.24000000       0.04000000 </v>
   <v>      -0.48000000       0.24000000       0.04000000 </v>
   <v>      -0.44000000       0.24000000       0.04000000 </v>
   <v>      -0.40000000       0.24000000       0.04000000 </v>
   <v>      -0.36000000       0.24000000       0.04000000 </v>
   <v>      -0.32000000       0.24000000       0.04000000 </v>
   <v>      -0.28000000       0.24000000       0.04000000 </v>
   <v>      -0.24000000       0.24000000       0.04000000 </v>
   <v>      -0.20000000       0.24000000       0.04000000 </v>
   <v>       0.32000000       0.28000000       0.04000000 </v>
   <v>       0.36000000       0.28000000       0.04000000 </v>
   <v>       0.40000000       0.28000000       0.04000000 </v>
   <v>       0.44000000       0.28000000       0.04000000 </v>
   <v>       0.48000000       0.28000000       0.04000000 </v>
   <v>      -0.48000000       0.28000000       0.04000000 </v>
   <v>      -0.44000000       0.28000000       0.04000000 </v>
   <v>      -0.40000000       0.28000000       0.04000000 </v>
   <v>      -0.36000000       0.28000000       0.04000000 </v>
   <v>      -0.32000000       0.28000000       0.04000000 </v>
   <v>      -0.28000000       0.28000000       0.04000000 </v>
   <v>      -0.24000000       0.28000000       0.04000000 </v>
   <v>       0.36000000       0.32000000       0.04000000 </v>
   <v>       0.40000000       0.32000000       0.04000000 </v>
   <v>       0.44000000       0.32000000       0.04000000 </v>
   <v>       0.48000000       0.32000000       0.04000000 </v>
   <v>      -0.48000000       0.32000000       0.04000000 </v>
   <v>      -0.44000000       0.32000000       0.04000000 </v>
   <v>      -0.40000000       0.32000000       0.04000000 </v>
   <v>      -0.36000000       0.32000000       0.04000000 </v>
   <v>      -0.32000000       0.32000000       0.04000000 </v>
   <v>      -0.28000000       0.32000000       0.04000000 </v>
   <v>       0.40000000       0.36000000       0.04000000 </v>
   <v>       0.44000000       0.36000000       0.04000000 </v>
   <v>       0.48000000       0.36000000       0.04000000 </v>
   <v>      -0.48000000       0.36000000       0.04000000 </v>
   <v>      -0.44000000       0.36000000       0.04000000 </v>
   <v>      -0.40000000       0.36000000       0.04000000 </v>
   <v>      -0.36000000       0.36000000       0.04000000 </v>
   <v>      -0.32000000       0.36000000       0.04000000 </v>
   <v>       0.44000000       0.40000000       0.04000000 </v>
   <v>       0.48000000       0.40000000       0.04000000 </v>
   <v>      -0.48000000       0.40000000       0.04000000 </v>
   <v>      -0.44000000       0.40000000       0.04000000 </v>
   <v>      -0.40000000       0.40000000       0.04000000 </v>
   <v>      -0.36000000       0.40000000       0.04000000 </v>
   <v>       0.48000000       0.44000000       0.04000000 </v>
   <v>      -0.48000000       0.44000000       0.04000000 </v>
   <v>      -0.44000000       0.44000000       0.04000000 </v>
   <v>      -0.40000000       0.44000000       0.04000000 </v>
   <v>      -0.48000000       0.48000000       0.04000000 </v>
   <v>      -0.44000000       0.48000000       0.04000000 </v>
   <v>       0.24000000       0.16000000       0.08000000 </v>
   <v>       0.28000000       0.16000000       0.08000000 </v>
   <v>       0.32000000       0.16000000       0.08000000 </v>
   <v>       0.36000000       0.16000000       0.08000000 </v>
   <v>       0.40000000       0.16000000       0.08000000 </v>
   <v>       0.44000000       0.16000000       0.08000000 </v>
   <v>       0.48000000       0.16000000       0.08000000 </v>
   <v>      -0.48000000       0.16000000       0.08000000 </v>
   <v>      -0.44000000       0.16000000       0.08000000 </v>
   <v>       0.28000000       0.20000000       0.08000000 </v>
   <v>       0.32000000       0.20000000       0.08000000 </v>
   <v>       0.36000000       0.20000000       0.08000000 </v>
   <v>       0.40000000       0.20000000       0.08000000 </v>
   <v>       0.44000000       0.20000000       0.08000000 </v>
   <v>       0.48000000       0.20000000       0.08000000 </v>
   <v>      -0.48000000       0.20000000       0.08000000 </v>
   <v>      -0.44000000       0.20000000       0.08000000 </v>
   <v>      -0.40000000       0.20000000       0.08000000 </v>
   <v>      -0.36000000       0.20000000       0.08000000 </v>
   <v>      -0.32000000       0.20000000       0.08000000 </v>
   <v>      -0.28000000       0.20000000       0.08000000 </v>
   <v>      -0.24000000       0.20000000       0.08000000 </v>
   <v>      -0.20000000       0.20000000       0.08000000 </v>
   <v>      -0.16000000       0.20000000       0.08000000 </v>
   <v>      -0.12000000       0.20000000       0.08000000 </v>
   <v>       0.32000000       0.24000000       0.08000000 </v>
   <v>       0.36000000       0.24000000       0.08000000 </v>
   <v>       0.40000000       0.24000000       0.08000000 </v>
   <v>       0.44000000       0.24000000       0.08000000 </v>
   <v>       0.48000000       0.24000000       0.08000000 </v>
   <v>      -0.48000000       0.24000000       0.08000000 </v>
   <v>      -0.44000000       0.24000000       0.08000000 </v>
   <v>      -0.40000000       0.24000000       0.08000000 </v>
   <v>      -0.36000000       0.24000000       0.08000000 </v>
   <v>      -0.32000000       0.24000000       0.08000000 </v>
   <v>      -0.28000000       0.24000000       0.08000000 </v>
   <v>      -0.24000000       0.24000000       0.08000000 </v>
   <v>      -0.20000000       0.24000000       0.08000000 </v>
   <v>      -0.16000000       0.24000000       0.08000000 </v>
   <v>       0.36000000       0.28000000       0.08000000 </v>
   <v>       0.40000000       0.28000000       0.08000000 </v>
   <v>       0.44000000       0.28000000       0.08000000 </v>
   <v>       0.48000000       0.28000000       0.08000000 </v>
   <v>      -0.48000000       0.28000000       0.08000000 </v>
   <v>      -0.44000000       0.28000000       0.08000000 </v>
   <v>      -0.40000000       0.28000000       0.08000000 </v>
   <v>      -0.36000000       0.28000000       0.08000000 </v>
   <v>      -0.32000000       0.28000000       0.08000000 </v>
   <v>      -0.28000000       0.28000000       0.08000000 </v>
   <v>      -0.24000000       0.28000000       0.08000000 </v>
   <v>      -0.20000000       0.28000000       0.08000000 </v>
   <v>       0.40000000       0.32000000       0.08000000 </v>
   <v>       0.44000000       0.32000000       0.08000000 </v>
   <v>       0.48000000       0.32000000       0.08000000 </v>
   <v>      -0.48000000       0.32000000       0.08000000 </v>
   <v>      -0.44000000       0.32000000       0.08000000 </v>
   <v>      -0.40000000       0.32000000       0.08000000 </v>
   <v>      -0.36000000       0.32000000       0.08000000 </v>
   <v>      -0.32000000       0.32000000       0.08000000 </v>
   <v>      -0.28000000       0.32000000       0.08000000 </v>
   <v>      -0.24000000       0.32000000       0.08000000 </v>
   <v>       0.44000000       0.36000000       0.08000000 </v>
   <v>       0.48000000       0.36000000       0.08000000 </v>
   <v>      -0.48000000       0.36000000       0.08000000 </v>
   <v>      -0.44000000       0.36000000       0.08000000 </v>
   <v>      -0.40000000       0.36000000       0.08000000 </v>
   <v>      -0.36000000       0.36000000       0.08000000 </v>
   <v>      -0.32000000       0.36000000       0.08000000 </v>
   <v>      -0.28000000       0.36000000       0.08000000 </v>
   <v>       0.48000000       0.40000000       0.08000000 </v>
   <v>      -0.48000000       0.40000000       0.08000000 </v>
   <v>      -0.44000000       0.40000000       0.08000000 </v>
   <v>      -0.40000000       0.40000000       0.08000000 </v>
   <v>      -0.36000000       0.40000000       0.08000000 </v>
   <v>      -0.32000000       0.40000000       0.08000000 </v>
   <v>      -0.48000000       0.44000000       0.08000000 </v>
   <v>      -0.44000000       0.44000000       0.08000000 </v>
   <v>      -0.40000000       0.44000000       0.08000000 </v>
   <v>      -0.36000000       0.44000000       0.08000000 </v>
   <v>      -0.44000000       0.48000000       0.08000000 </v>
   <v>      -0.40000000       0.48000000       0.08000000 </v>
   <v>       0.36000000       0.24000000       0.12000000 </v>
   <v>       0.40000000       0.24000000       0.12000000 </v>
   <v>       0.44000000       0.24000000       0.12000000 </v>
   <v>       0.48000000       0.24000000       0.12000000 </v>
   <v>      -0.48000000       0.24000000       0.12000000 </v>
   <v>      -0.44000000       0.24000000       0.12000000 </v>
   <v>      -0.40000000       0.24000000       0.12000000 </v>
   <v>       0.40000000       0.28000000       0.12000000 </v>
   <v>       0.44000000       0.28000000       0.12000000 </v>
   <v>       0.48000000       0.28000000       0.12000000 </v>
   <v>      -0.48000000       0.28000000       0.12000000 </v>
   <v>      -0.44000000       0.28000000       0.12000000 </v>
   <v>      -0.40000000       0.28000000       0.12000000 </v>
   <v>      -0.36000000       0.28000000       0.12000000 </v>
   <v>      -0.32000000       0.28000000       0.12000000 </v>
   <v>      -0.28000000       0.28000000       0.12000000 </v>
   <v>      -0.24000000       0.28000000       0.12000000 </v>
   <v>      -0.20000000       0.28000000       0.12000000 </v>
   <v>      -0.16000000       0.28000000       0.12000000 </v>
   <v>       0.44000000       0.32000000       0.12000000 </v>
   <v>       0.48000000       0.32000000       0.12000000 </v>
   <v>      -0.48000000       0.32000000       0.12000000 </v>
   <v>      -0.44000000       0.32000000       0.12000000 </v>
   <v>      -0.40000000       0.32000000       0.12000000 </v>
   <v>      -0.36000000       0.32000000       0.12000000 </v>
   <v>      -0.32000000       0.32000000       0.12000000 </v>
   <v>      -0.28000000       0.32000000       0.12000000 </v>
   <v>      -0.24000000       0.32000000       0.12000000 </v>
   <v>      -0.20000000       0.32000000       0.12000000 </v>
   <v>       0.48000000       0.36000000       0.12000000 </v>
   <v>      -0.48000000       0.36000000       0.12000000 </v>
   <v>      -0.44000000       0.36000000       0.12000000 </v>
   <v>      -0.40000000       0.36000000       0.12000000 </v>
   <v>      -0.36000000       0.36000000       0.12000000 </v>
   <v>      -0.32000000       0.36000000       0.12000000 </v>
   <v>      -0.28000000       0.36000000       0.12000000 </v>
   <v>      -0.24000000       0.36000000       0.12000000 </v>
   <v>      -0.48000000       0.40000000       0.12000000 </v>
   <v>      -0.44000000       0.40000000       0.12000000 </v>
   <v>      -0.40000000       0.40000000       0.12000000 </v>
   <v>      -0.36000000       0.40000000       0.12000000 </v>
   <v>      -0.32000000       0.40000000       0.12000000 </v>
   <v>      -0.28000000       0.40000000       0.12000000 </v>
   <v>      -0.44000000       0.44000000       0.12000000 </v>
   <v>      -0.40000000       0.44000000       0.12000000 </v>
   <v>      -0.36000000       0.44000000       0.12000000 </v>
   <v>      -0.32000000       0.44000000       0.12000000 </v>
   <v>      -0.40000000       0.48000000       0.12000000 </v>
   <v>      -0.36000000       0.48000000       0.12000000 </v>
   <v>       0.48000000       0.32000000       0.16000000 </v>
   <v>      -0.48000000       0.32000000       0.16000000 </v>
   <v>      -0.44000000       0.32000000       0.16000000 </v>
   <v>      -0.40000000       0.32000000       0.16000000 </v>
   <v>      -0.36000000       0.32000000       0.16000000 </v>
   <v>      -0.48000000       0.36000000       0.16000000 </v>
   <v>      -0.44000000       0.36000000       0.16000000 </v>
   <v>      -0.40000000       0.36000000       0.16000000 </v>
   <v>      -0.36000000       0.36000000       0.16000000 </v>
   <v>      -0.32000000       0.36000000       0.16000000 </v>
   <v>      -0.28000000       0.36000000       0.16000000 </v>
   <v>      -0.24000000       0.36000000       0.16000000 </v>
   <v>      -0.20000000       0.36000000       0.16000000 </v>
   <v>      -0.44000000       0.40000000       0.16000000 </v>
   <v>      -0.40000000       0.40000000       0.16000000 </v>
   <v>      -0.36000000       0.40000000       0.16000000 </v>
   <v>      -0.32000000       0.40000000       0.16000000 </v>
   <v>      -0.28000000       0.40000000       0.16000000 </v>
   <v>      -0.24000000       0.40000000       0.16000000 </v>
   <v>      -0.40000000       0.44000000       0.16000000 </v>
   <v>      -0.36000000       0.44000000       0.16000000 </v>
   <v>      -0.32000000       0.44000000       0.16000000 </v>
   <v>      -0.28000000       0.44000000       0.16000000 </v>
   <v>      -0.36000000       0.48000000       0.16000000 </v>
   <v>      -0.32000000       0.48000000       0.16000000 </v>
   <v>      -0.40000000       0.40000000       0.20000000 </v>
   <v>      -0.36000000       0.40000000       0.20000000 </v>
   <v>      -0.32000000       0.40000000       0.20000000 </v>
   <v>      -0.36000000       0.44000000       0.20000000 </v>
   <v>      -0.32000000       0.44000000       0.20000000 </v>
   <v>      -0.28000000       0.44000000       0.20000000 </v>
   <v>      -0.24000000       0.44000000       0.20000000 </v>
   <v>      -0.32000000       0.48000000       0.20000000 </v>
   <v>      -0.28000000       0.48000000       0.20000000 </v>
   <v>      -0.28000000       0.48000000       0.24000000 </v>
  </varray>
  <varray name="weights" >
   <v>       0.00006400 </v>
   <v>       0.00051200 </v>
   <v>       0.00051200 </v>
   <v>       0.00051200 </v>
   <v>       0.00051200 </v>
   <v>       0.00051200 </v>
   <v>       0.00051200 </v>
   <v>       0.00051200 </v>
   <v>       0.00051200 </v>
   <v>       0.00051200 </v>
   <v>       0.00051200 </v>
   <v>       0.00051200 </v>
   <v>       0.00051200 </v>
   <v>       0.00038400 </v>
   <v>       0.00153600 </v>
   <v>       0.00153600 </v>
   <v>       0.00153600 </v>
   <v>       0.00153600 </v>
   <v>       0.00153600 </v>
   <v>       0.00153600 </v>
   <v>       0.00153600 </v>
   <v>       0.00153600 </v>
   <v>       0.00153600 </v>
   <v>       0.00153600 </v>
   <v>       0.00153600 </v>
   <v>       0.00153600 </v>
   <v>       0.00153600 </v>
   <v>       0.00153600 </v>
   <v>       0.00153600 </v>
   <v>       0.00153600 </v>
   <v>       0.00153600 </v>
   <v>       0.00153600 </v>
   <v>       0.00153600 </v>
   <v>       0.00153600 </v>
   <v>       0.00153600 </v>
   <v>       0.00153600 </v>
   <v>       0.00076800 </v>
   <v>       0.00038400 </v>
   <v>       0.00153600 </v>
   <v>       0.00153600 </v>
   <v>       0.00153600 </v>
   <v>       0.00153600 </v>
   <v>       0.00153600 </v>
   <v>       0.00153600 </v>
   <v>       0.00153600 </v>
   <v>       0.00153600 </v>
   <v>       0.00153600 </v>
   <v>       0.00153600 </v>
   <v>       0.00153600 </v>
   <v>       0.00153600 </v>
   <v>       0.00153600 </v>
   <v>       0.00153600 </v>
   <v>       0.00153600 </v>
   <v>       0.00153600 </v>
   <v>       0.00153600 </v>
   <v>       0.00153600 </v>
   <v>       0.00153600 </v>
   <v>       0.00153600 </v>
   <v>       0.00076800 </v>
   <v>       0.00038400 </v>
   <v>       0.00153600 </v>
   <v>       0.00153600 </v>
   <v>       0.00153600 </v>
   <v>       0.00153600 </v>
   <v>       0.00153600 </v>
   <v>       0.00153600 </v>
   <v>       0.00153600 </v>
   <v>       0.00153600 </v>
   <v>       0.00153600 </v>
   <v>       0.00153600 </v>
   <v>       0.00153600 </v>
   <v>       0.00153600 </v>
   <v>       0.00153600 </v>
   <v>       0.00153600 </v>
   <v>       0.00153600 </v>
   <v>       0.00153600 </v>
   <v>       0.00153600 </v>
   <v>       0.00153600 </v>
   <v>       0.00076800 </v>
   <v>       0.00038400 </v>
   <v>       0.00153600 </v>
   <v>       0.00153600 </v>
   <v>       0.00153600 </v>
   <v>       0.00153600 </v>
   <v>       0.00153600 </v>
   <v>       0.00153600 </v>
   <v>       0.00153600 </v>
   <v>       0.00153600 </v>
   <v>       0.00153600 </v>
   <v>       0.00153600 </v>
   <v>       0.00153600 </v>
   <v>       0.00153600 </v>
   <v>       0.00153600 </v>
   <v>       0.00153600 </v>
   <v>       0.00153600 </v>
   <v>       0.00153600 </v>
   <v>       0.00076800 </v>
   <v>       0.00038400 </v>
   <v>       0.00153600 </v>
   <v>       0.00153600 </v>
   <v>       0.00153600 </v>
   <v>       0.00153600 </v>
   <v>       0.00153600 </v>
   <v>       0.00153600 </v>
   <v>       0.00153600 </v>
   <v>       0.00153600 </v>
   <v>       0.00153600 </v>
   <v>       0.00153600 </v>
   <v>       0.00153600 </v>
   <v>       0.00153600 </v>
   <v>       0.00153600 </v>
   <v>       0.00153600 </v>
   <v>       0.00076800 </v>
   <v>       0.00038400 </v>
   <v>       0.00153600 </v>
   <v>       0.00153600 </v>
   <v>       0.00153600 </v>
   <v>       0.00153600 </v>
   <v>       0.00153600 </v>
   <v>       0.00153600 </v>
   <v>       0.00153600 </v>
   <v>       0.00153600 </v>
   <v>       0.00153600 </v>
   <v>       0.00153600 </v>
   <v>       0.00153600 </v>
   <v>       0.00153600 </v>
   <v>       0.00076800 </v>
   <v>       0.00038400 </v>
   <v>       0.00153600 </v>
   <v>       0.00153600 </v>
   <v>       0.00153600 </v>
   <v>       0.00153600 </v>
   <v>       0.00153600 </v>
   <v>       0.00153600 </v>
   <v>       0.00153600 </v>
   <v>       0.00153600 </v>
   <v>       0.00153600 </v>
   <v>       0.00153600 </v>
   <v>       0.00076800 </v>
   <v>       0.00038400 </v>
   <v>       0.00153600 </v>
   <v>       0.00153600 </v>
   <v>       0.00153600 </v>
   <v>       0.00153600 </v>
   <v>       0.00153600 </v>
   <v>       0.00153600 </v>
   <v>       0.00153600 </v>
   <v>       0.00153600 </v>
   <v>       0.00076800 </v>
   <v>       0.00038400 </v>
   <v>       0.00153600 </v>
   <v>       0.00153600 </v>
   <v>       0.00153600 </v>
   <v>       0.00153600 </v>
   <v>       0.00153600 </v>
   <v>       0.00153600 </v>
   <v>       0.00076800 </v>
   <v>       0.00038400 </v>
   <v>       0.00153600 </v>
   <v>       0.00153600 </v>
   <v>       0.00153600 </v>
   <v>       0.00153600 </v>
   <v>       0.00076800 </v>
   <v>       0.00038400 </v>
   <v>       0.00153600 </v>
   <v>       0.00153600 </v>
   <v>       0.00076800 </v>
   <v>       0.00038400 </v>
   <v>       0.00076800 </v>
   <v>       0.00153600 </v>
   <v>       0.00307200 </v>
   <v>       0.00307200 </v>
   <v>       0.00307200 </v>
   <v>       0.00307200 </v>
   <v>       0.00307200 </v>
   <v>       0.00307200 </v>
   <v>       0.00307200 </v>
   <v>       0.00307200 </v>
   <v>       0.00307200 </v>
   <v>       0.00307200 </v>
   <v>       0.00153600 </v>
   <v>       0.00307200 </v>
   <v>       0.00307200 </v>
   <v>       0.00307200 </v>
   <v>       0.00307200 </v>
   <v>       0.00307200 </v>
   <v>       0.00307200 </v>
   <v>       0.00307200 </v>
   <v>       0.00307200 </v>
   <v>       0.00307200 </v>
   <v>       0.00307200 </v>
   <v>       0.00307200 </v>
   <v>       0.00307200 </v>
   <v>       0.00307200 </v>
   <v>       0.00307200 </v>
   <v>       0.00307200 </v>
   <v>       0.00307200 </v>
   <v>       0.00307200 </v>
   <v>       0.00307200 </v>
   <v>       0.00153600 </v>
   <v>       0.00153600 </v>
   <v>       0.00307200 </v>
   <v>       0.00307200 </v>
   <v>       0.00307200 </v>
   <v>       0.00307200 </v>
   <v>       0.00307200 </v>
   <v>       0.00307200 </v>
   <v>       0.00307200 </v>
   <v>       0.00307200 </v>
   <v>       0.00307200 </v>
   <v>       0.00307200 </v>
   <v>       0.00307200 </v>
   <v>       0.00307200 </v>
   <v>       0.00307200 </v>
   <v>       0.00307200 </v>
   <v>       0.00307200 </v>
   <v>       0.00307200 </v>
   <v>       0.00153600 </v>
   <v>       0.00153600 </v>
   <v>       0.00307200 </v>
   <v>       0.00307200 </v>
   <v>       0.00307200 </v>
   <v>       0.00307200 </v>
   <v>       0.00307200 </v>
   <v>       0.00307200 </v>
   <v>       0.00307200 </v>
   <v>       0.00307200 </v>
   <v>       0.00307200 </v>
   <v>       0.00307200 </v>
   <v>       0.00307200 </v>
   <v>       0.00307200 </v>
   <v>       0.00307200 </v>
   <v>       0.00307200 </v>
   <v>       0.00153600 </v>
   <v>       0.00153600 </v>
   <v>       0.00307200 </v>
   <v>       0.00307200 </v>
   <v>       0.00307200 </v>
   <v>       0.00307200 </v>
   <v>       0.00307200 </v>
   <v>       0.00307200 </v>
   <v>       0.00307200 </v>
   <v>       0.00307200 </v>
   <v>       0.00307200 </v>
   <v>       0.00307200 </v>
   <v>       0.00307200 </v>
   <v>       0.00307200 </v>
   <v>       0.00153600 </v>
   <v>       0.00153600 </v>
   <v>       0.00307200 </v>
   <v>       0.00307200 </v>
   <v>       0.00307200 </v>
   <v>       0.00307200 </v>
   <v>       0.00307200 </v>
   <v>       0.00307200 </v>
   <v>       0.00307200 </v>
   <v>       0.00307200 </v>
   <v>       0.00307200 </v>
   <v>       0.00307200 </v>
   <v>       0.00153600 </v>
   <v>       0.00153600 </v>
   <v>       0.00307200 </v>
   <v>       0.00307200 </v>
   <v>       0.00307200 </v>
   <v>       0.00307200 </v>
   <v>       0.00307200 </v>
   <v>       0.00307200 </v>
   <v>       0.00307200 </v>
   <v>       0.00307200 </v>
   <v>       0.00153600 </v>
   <v>       0.00153600 </v>
   <v>       0.00307200 </v>
   <v>       0.00307200 </v>
   <v>       0.00307200 </v>
   <v>       0.00307200 </v>
   <v>       0.00307200 </v>
   <v>       0.00307200 </v>
   <v>       0.00153600 </v>
   <v>       0.00153600 </v>
   <v>       0.00307200 </v>
   <v>       0.00307200 </v>
   <v>       0.00307200 </v>
   <v>       0.00307200 </v>
   <v>       0.00153600 </v>
   <v>       0.00153600 </v>
   <v>       0.00307200 </v>
   <v>       0.00307200 </v>
   <v>       0.00153600 </v>
   <v>       0.00153600 </v>
   <v>       0.00153600 </v>
   <v>       0.00153600 </v>
   <v>       0.00307200 </v>
   <v>       0.00307200 </v>
   <v>       0.00307200 </v>
   <v>       0.00307200 </v>
   <v>       0.00307200 </v>
   <v>       0.00307200 </v>
   <v>       0.00307200 </v>
   <v>       0.00307200 </v>
   <v>       0.00153600 </v>
   <v>       0.00307200 </v>
   <v>       0.00307200 </v>
   <v>       0.00307200 </v>
   <v>       0.00307200 </v>
   <v>       0.00307200 </v>
   <v>       0.00307200 </v>
   <v>       0.00307200 </v>
   <v>       0.00307200 </v>
   <v>       0.00307200 </v>
   <v>       0.00307200 </v>
   <v>       0.00307200 </v>
   <v>       0.00307200 </v>
   <v>       0.00307200 </v>
   <v>       0.00307200 </v>
   <v>       0.00153600 </v>
   <v>       0.00153600 </v>
   <v>       0.00307200 </v>
   <v>       0.00307200 </v>
   <v>       0.00307200 </v>
   <v>       0.00307200 </v>
   <v>       0.00307200 </v>
   <v>       0.00307200 </v>
   <v>       0.00307200 </v>
   <v>       0.00307200 </v>
   <v>       0.00307200 </v>
   <v>       0.00307200 </v>
   <v>       0.00307200 </v>
   <v>       0.00307200 </v>
   <v>       0.00153600 </v>
   <v>       0.00153600 </v>
   <v>       0.00307200 </v>
   <v>       0.00307200 </v>
   <v>       0.00307200 </v>
   <v>       0.00307200 </v>
   <v>       0.00307200 </v>
   <v>       0.00307200 </v>
   <v>       0.00307200 </v>
   <v>       0.00307200 </v>
   <v>       0.00307200 </v>
   <v>       0.00307200 </v>
   <v>       0.00153600 </v>
   <v>       0.00153600 </v>
   <v>       0.00307200 </v>
   <v>       0.00307200 </v>
   <v>       0.00307200 </v>
   <v>       0.00307200 </v>
   <v>       0.00307200 </v>
   <v>       0.00307200 </v>
   <v>       0.00307200 </v>
   <v>       0.00307200 </v>
   <v>       0.00153600 </v>
   <v>       0.00153600 </v>
   <v>       0.00307200 </v>
   <v>       0.00307200 </v>
   <v>       0.00307200 </v>
   <v>       0.00307200 </v>
   <v>       0.00307200 </v>
   <v>       0.00307200 </v>
   <v>       0.00153600 </v>
   <v>       0.00153600 </v>
   <v>       0.00307200 </v>
   <v>       0.00307200 </v>
   <v>       0.00307200 </v>
   <v>       0.00307200 </v>
   <v>       0.00153600 </v>
   <v>       0.00153600 </v>
   <v>       0.00307200 </v>
   <v>       0.00307200 </v>
   <v>       0.00153600 </v>
   <v>       0.00153600 </v>
   <v>       0.00153600 </v>
   <v>       0.00153600 </v>
   <v>       0.00307200 </v>
   <v>       0.00307200 </v>
   <v>       0.00307200 </v>
   <v>       0.00307200 </v>
   <v>       0.00307200 </v>
   <v>       0.00307200 </v>
   <v>       0.00153600 </v>
   <v>       0.00307200 </v>
   <v>       0.00307200 </v>
   <v>       0.00307200 </v>
   <v>       0.00307200 </v>
   <v>       0.00307200 </v>
   <v>       0.00307200 </v>
   <v>       0.00307200 </v>
   <v>       0.00307200 </v>
   <v>       0.00307200 </v>
   <v>       0.00307200 </v>
   <v>       0.00153600 </v>
   <v>       0.00153600 </v>
   <v>       0.00307200 </v>
   <v>       0.00307200 </v>
   <v>       0.00307200 </v>
   <v>       0.00307200 </v>
   <v>       0.00307200 </v>
   <v>       0.00307200 </v>
   <v>       0.00307200 </v>
   <v>       0.00307200 </v>
   <v>       0.00153600 </v>
   <v>       0.00153600 </v>
   <v>       0.00307200 </v>
   <v>       0.00307200 </v>
   <v>       0.00307200 </v>
   <v>       0.00307200 </v>
   <v>       0.00307200 </v>
   <v>       0.00307200 </v>
   <v>       0.00153600 </v>
   <v>       0.00153600 </v>
   <v>       0.00307200 </v>
   <v>       0.00307200 </v>
   <v>       0.00307200 </v>
   <v>       0.00307200 </v>
   <v>       0.00153600 </v>
   <v>       0.00153600 </v>
   <v>       0.00307200 </v>
   <v>       0.00307200 </v>
   <v>       0.00153600 </v>
   <v>       0.00153600 </v>
   <v>       0.00153600 </v>
   <v>       0.00153600 </v>
   <v>       0.00307200 </v>
   <v>       0.00307200 </v>
   <v>       0.00307200 </v>
   <v>       0.00307200 </v>
   <v>       0.00153600 </v>
   <v>       0.00307200 </v>
   <v>       0.00307200 </v>
   <v>       0.00307200 </v>
   <v>       0.00307200 </v>
   <v>       0.00307200 </v>
   <v>       0.00307200 </v>
   <v>       0.00153600 </v>
   <v>       0.00153600 </v>
   <v>       0.00307200 </v>
   <v>       0.00307200 </v>
   <v>       0.00307200 </v>
   <v>       0.00307200 </v>
   <v>       0.00153600 </v>
   <v>       0.00153600 </v>
   <v>       0.00307200 </v>
   <v>       0.00307200 </v>
   <v>       0.00153600 </v>
   <v>       0.00153600 </v>
   <v>       0.00153600 </v>
   <v>       0.00153600 </v>
   <v>       0.00307200 </v>
   <v>       0.00307200 </v>
   <v>       0.00153600 </v>
   <v>       0.00307200 </v>
   <v>       0.00307200 </v>
   <v>       0.00153600 </v>
   <v>       0.00153600 </v>
   <v>       0.00153600 </v>
   <v>       0.00153600 </v>
  </varray>
  <varray name="tetrahedronlist"  type="int" >
   <v type="int" >       48        2        3       15       37 </v>
   <v type="int" >       48       15       36       37      170 </v>
   <v type="int" >       24       36       36       37      170 </v>
   <v type="int" >       48        3       15       36       37 </v>
   <v type="int" >       48       36       59      170      171 </v>
   <v type="int" >       48       35       36       59      171 </v>
   <v type="int" >       24       36       36       59      170 </v>
   <v type="int" >       48       35       58      171      172 </v>
   <v type="int" >       48       34       35       58      172 </v>
   <v type="int" >       48       35       58       59      171 </v>
   <v type="int" >       48       34       57      172      173 </v>
   <v type="int" >       48       33       34       57      173 </v>
   <v type="int" >       48       34       57       58      172 </v>
   <v type="int" >       48       33       56      173      174 </v>
   <v type="int" >       48       32       33       56      174 </v>
   <v type="int" >       48       33       56       57      173 </v>
   <v type="int" >       48       32       55      174      175 </v>
   <v type="int" >       48       31       32       55      175 </v>
   <v type="int" >       48       32       55       56      174 </v>
   <v type="int" >       48       31       54      175      176 </v>
   <v type="int" >       48       30       31       54      176 </v>
   <v type="int" >       48       31       54       55      175 </v>
   <v type="int" >       48       30       53      176      177 </v>
   <v type="int" >       48       29       30       53      177 </v>
   <v type="int" >       48       30       53       54      176 </v>
   <v type="int" >       48       29       52      177      178 </v>
   <v type="int" >       48       28       29       52      178 </v>
   <v type="int" >       48       29       52       53      177 </v>
   <v type="int" >       48       28       51      178      179 </v>
   <v type="int" >       48       27       28       51      179 </v>
   <v type="int" >       48       28       51       52      178 </v>
   <v type="int" >       48       27       50      179      180 </v>
   <v type="int" >       48       26       27       50      180 </v>
   <v type="int" >       48       27       50       51      179 </v>
   <v type="int" >       48       26       49      180      180 </v>
   <v type="int" >       48       25       26       49      180 </v>
   <v type="int" >       48       26       49       50      180 </v>
   <v type="int" >       48       25       48      179      180 </v>
   <v type="int" >       48       24       25       48      179 </v>
   <v type="int" >       48       25       48       49      180 </v>
   <v type="int" >       48       24       47      178      179 </v>
   <v type="int" >       48       23       24       47      178 </v>
   <v type="int" >       48       24       47       48      179 </v>
   <v type="int" >       48       23       46      177      178 </v>
   <v type="int" >       48       22       23       46      177 </v>
   <v type="int" >       48       23       46       47      178 </v>
   <v type="int" >       48       22       45      176      177 </v>
   <v type="int" >       48       21       22       45      176 </v>
   <v type="int" >       48       22       45       46      177 </v>
   <v type="int" >       48       21       44      175      176 </v>
   <v type="int" >       48       20       21       44      175 </v>
   <v type="int" >       48       21       44       45      176 </v>
   <v type="int" >       48       20       43      174      175 </v>
   <v type="int" >       48       19       20       43      174 </v>
   <v type="int" >       48       20       43       44      175 </v>
   <v type="int" >       48       19       42      173      174 </v>
   <v type="int" >       48       18       19       42      173 </v>
   <v type="int" >       48       19       42       43      174 </v>
   <v type="int" >       48       18       41      172      173 </v>
   <v type="int" >       48       17       18       41      172 </v>
   <v type="int" >       48       18       41       42      173 </v>
   <v type="int" >       48       17       40      171      172 </v>
   <v type="int" >       48       16       17       40      171 </v>
   <v type="int" >       48       17       40       41      172 </v>
   <v type="int" >       48       16       39      170      171 </v>
   <v type="int" >       48       15       16       39      170 </v>
   <v type="int" >       48       16       39       40      171 </v>
   <v type="int" >       24       15       15       38      170 </v>
   <v type="int" >       24       14       15       15       38 </v>
   <v type="int" >       48       15       38       39      170 </v>
   <v type="int" >       24       14       15       15       37 </v>
   <v type="int" >       48        2       14       15       37 </v>
   <v type="int" >       48       15       16       36      170 </v>
   <v type="int" >       48        3       15       16       36 </v>
   <v type="int" >       48       39      170      171      181 </v>
   <v type="int" >       24      170      171      171      181 </v>
   <v type="int" >       24       59      170      171      171 </v>
   <v type="int" >       48       16       36      170      171 </v>
   <v type="int" >       48      171      181      182      200 </v>
   <v type="int" >       48      171      172      182      200 </v>
   <v type="int" >       48       58      171      172      200 </v>
   <v type="int" >       24      171      171      181      200 </v>
   <v type="int" >       24       59      171      171      200 </v>
   <v type="int" >       48       58       59      171      200 </v>
   <v type="int" >       48      172      182      183      199 </v>
   <v type="int" >       48      172      173      183      199 </v>
   <v type="int" >       48       57      172      173      199 </v>
   <v type="int" >       48      172      182      199      200 </v>
   <v type="int" >       48       58      172      199      200 </v>
   <v type="int" >       48       57       58      172      199 </v>
   <v type="int" >       48      173      183      184      198 </v>
   <v type="int" >       48      173      174      184      198 </v>
   <v type="int" >       48       56      173      174      198 </v>
   <v type="int" >       48      173      183      198      199 </v>
   <v type="int" >       48       57      173      198      199 </v>
   <v type="int" >       48       56       57      173      198 </v>
   <v type="int" >       48      174      184      185      197 </v>
   <v type="int" >       48      174      175      185      197 </v>
   <v type="int" >       48       55      174      175      197 </v>
   <v type="int" >       48      174      184      197      198 </v>
   <v type="int" >       48       56      174      197      198 </v>
   <v type="int" >       48       55       56      174      197 </v>
   <v type="int" >       48      175      185      186      196 </v>
   <v type="int" >       48      175      176      186      196 </v>
   <v type="int" >       48       54      175      176      196 </v>
   <v type="int" >       48      175      185      196      197 </v>
   <v type="int" >       48       55      175      196      197 </v>
   <v type="int" >       48       54       55      175      196 </v>
   <v type="int" >       48      176      186      187      195 </v>
   <v type="int" >       48      176      177      187      195 </v>
   <v type="int" >       48       53      176      177      195 </v>
   <v type="int" >       48      176      186      195      196 </v>
   <v type="int" >       48       54      176      195      196 </v>
   <v type="int" >       48       53       54      176      195 </v>
   <v type="int" >       48      177      187      188      194 </v>
   <v type="int" >       48      177      178      188      194 </v>
   <v type="int" >       48       52      177      178      194 </v>
   <v type="int" >       48      177      187      194      195 </v>
   <v type="int" >       48       53      177      194      195 </v>
   <v type="int" >       48       52       53      177      194 </v>
   <v type="int" >       48      178      188      189      193 </v>
   <v type="int" >       48      178      179      189      193 </v>
   <v type="int" >       48       51      178      179      193 </v>
   <v type="int" >       48      178      188      193      194 </v>
   <v type="int" >       48       52      178      193      194 </v>
   <v type="int" >       48       51       52      178      193 </v>
   <v type="int" >       48      179      189      190      192 </v>
   <v type="int" >       48      179      180      190      192 </v>
   <v type="int" >       48       50      179      180      192 </v>
   <v type="int" >       48      179      189      192      193 </v>
   <v type="int" >       48       51      179      192      193 </v>
   <v type="int" >       48       50       51      179      192 </v>
   <v type="int" >       48      180      190      191      191 </v>
   <v type="int" >       24      180      180      191      191 </v>
   <v type="int" >       48       49      180      180      191 </v>
   <v type="int" >       48      180      190      191      192 </v>
   <v type="int" >       48       50      180      191      192 </v>
   <v type="int" >       48       49       50      180      191 </v>
   <v type="int" >       48       48      179      180      190 </v>
   <v type="int" >       48       49      180      190      191 </v>
   <v type="int" >       48       48       49      180      190 </v>
   <v type="int" >       48       47      178      179      189 </v>
   <v type="int" >       48       48      179      189      190 </v>
   <v type="int" >       48       47       48      179      189 </v>
   <v type="int" >       48       46      177      178      188 </v>
   <v type="int" >       48       47      178      188      189 </v>
   <v type="int" >       48       46       47      178      188 </v>
   <v type="int" >       48       45      176      177      187 </v>
   <v type="int" >       48       46      177      187      188 </v>
   <v type="int" >       48       45       46      177      187 </v>
   <v type="int" >       48       44      175      176      186 </v>
   <v type="int" >       48       45      176      186      187 </v>
   <v type="int" >       48       44       45      176      186 </v>
   <v type="int" >       48       43      174      175      185 </v>
   <v type="int" >       48       44      175      185      186 </v>
   <v type="int" >       48       43       44      175      185 </v>
   <v type="int" >       48       42      173      174      184 </v>
   <v type="int" >       48       43      174      184      185 </v>
   <v type="int" >       48       42       43      174      184 </v>
   <v type="int" >       48       41      172      173      183 </v>
   <v type="int" >       48       42      173      183      184 </v>
   <v type="int" >       48       41       42      173      183 </v>
   <v type="int" >       48       40      171      172      182 </v>
   <v type="int" >       48       41      172      182      183 </v>
   <v type="int" >       48       40       41      172      182 </v>
   <v type="int" >       48       40      171      181      182 </v>
   <v type="int" >       48       39       40      171      181 </v>
   <v type="int" >       24       39       39      170      181 </v>
   <v type="int" >       24       38       39       39      170 </v>
   <v type="int" >       24       15       15       37      170 </v>
   <v type="int" >       48       39       40       61      181 </v>
   <v type="int" >       48       61      181      182      201 </v>
   <v type="int" >       24      181      182      182      201 </v>
   <v type="int" >       24      181      182      182      200 </v>
   <v type="int" >       48       40       61      181      182 </v>
   <v type="int" >       48      182      201      202      291 </v>
   <v type="int" >       48      182      183      202      291 </v>
   <v type="int" >       48      182      183      199      291 </v>
   <v type="int" >       24      182      182      201      291 </v>
   <v type="int" >       24      182      182      200      291 </v>
   <v type="int" >       48      182      199      200      291 </v>
   <v type="int" >       48      183      202      203      292 </v>
   <v type="int" >       48      183      184      203      292 </v>
   <v type="int" >       48      183      184      198      292 </v>
   <v type="int" >       48      183      202      291      292 </v>
   <v type="int" >       48      183      199      291      292 </v>
   <v type="int" >       48      183      198      199      292 </v>
   <v type="int" >       48      184      203      204      293 </v>
   <v type="int" >       48      184      185      204      293 </v>
   <v type="int" >       48      184      185      197      293 </v>
   <v type="int" >       48      184      203      292      293 </v>
   <v type="int" >       48      184      198      292      293 </v>
   <v type="int" >       48      184      197      198      293 </v>
   <v type="int" >       48      185      204      205      294 </v>
   <v type="int" >       48      185      186      205      294 </v>
   <v type="int" >       48      185      186      196      294 </v>
   <v type="int" >       48      185      204      293      294 </v>
   <v type="int" >       48      185      197      293      294 </v>
   <v type="int" >       48      185      196      197      294 </v>
   <v type="int" >       48      186      205      206      295 </v>
   <v type="int" >       48      186      187      206      295 </v>
   <v type="int" >       48      186      187      195      295 </v>
   <v type="int" >       48      186      205      294      295 </v>
   <v type="int" >       48      186      196      294      295 </v>
   <v type="int" >       48      186      195      196      295 </v>
   <v type="int" >       48      187      206      207      296 </v>
   <v type="int" >       48      187      188      207      296 </v>
   <v type="int" >       48      187      188      194      296 </v>
   <v type="int" >       48      187      206      295      296 </v>
   <v type="int" >       48      187      195      295      296 </v>
   <v type="int" >       48      187      194      195      296 </v>
   <v type="int" >       48      188      207      208      297 </v>
   <v type="int" >       48      188      189      208      297 </v>
   <v type="int" >       48      188      189      193      297 </v>
   <v type="int" >       48      188      207      296      297 </v>
   <v type="int" >       48      188      194      296      297 </v>
   <v type="int" >       48      188      193      194      297 </v>
   <v type="int" >       48      189      208      209      298 </v>
   <v type="int" >       48      189      190      209      298 </v>
   <v type="int" >       48      189      190      192      298 </v>
   <v type="int" >       48      189      208      297      298 </v>
   <v type="int" >       48      189      193      297      298 </v>
   <v type="int" >       48      189      192      193      298 </v>
   <v type="int" >       48      190      209      210      299 </v>
   <v type="int" >       48      190      191      210      299 </v>
   <v type="int" >       48      190      191      191      299 </v>
   <v type="int" >       48      190      209      298      299 </v>
   <v type="int" >       48      190      192      298      299 </v>
   <v type="int" >       48      190      191      192      299 </v>
   <v type="int" >       48      191      210      211      299 </v>
   <v type="int" >       48      191      192      211      299 </v>
   <v type="int" >       48      191      210      299      299 </v>
   <v type="int" >       24      191      191      299      299 </v>
   <v type="int" >       48      192      211      212      298 </v>
   <v type="int" >       48      192      193      212      298 </v>
   <v type="int" >       48      192      211      298      299 </v>
   <v type="int" >       48      193      212      213      297 </v>
   <v type="int" >       48      193      194      213      297 </v>
   <v type="int" >       48      193      212      297      298 </v>
   <v type="int" >       48      194      213      214      296 </v>
   <v type="int" >       48      194      195      214      296 </v>
   <v type="int" >       48      194      213      296      297 </v>
   <v type="int" >       48      195      214      215      295 </v>
   <v type="int" >       48      195      196      215      295 </v>
   <v type="int" >       48      195      214      295      296 </v>
   <v type="int" >       48      196      215      216      294 </v>
   <v type="int" >       48      196      197      216      294 </v>
   <v type="int" >       48      196      215      294      295 </v>
   <v type="int" >       48      197      216      217      293 </v>
   <v type="int" >       48      197      198      217      293 </v>
   <v type="int" >       48      197      216      293      294 </v>
   <v type="int" >       48      198      217      218      292 </v>
   <v type="int" >       48      198      199      218      292 </v>
   <v type="int" >       48      198      217      292      293 </v>
   <v type="int" >       24      199      199      218      291 </v>
   <v type="int" >       24      199      199      200      291 </v>
   <v type="int" >       48      199      218      291      292 </v>
   <v type="int" >       48       16       17       35      171 </v>
   <v type="int" >       48       16       35       36      171 </v>
   <v type="int" >       48       61       62       81      201 </v>
   <v type="int" >       48       61       62      182      201 </v>
   <v type="int" >       48       40       61       62      182 </v>
   <v type="int" >       48       81      201      202      219 </v>
   <v type="int" >       24      201      202      202      219 </v>
   <v type="int" >       24      201      202      202      291 </v>
   <v type="int" >       48       62       81      201      202 </v>
   <v type="int" >       48       62      182      201      202 </v>
   <v type="int" >       48      202      219      220      300 </v>
   <v type="int" >       48      202      203      220      300 </v>
   <v type="int" >       48      202      203      292      300 </v>
   <v type="int" >       24      202      202      219      300 </v>
   <v type="int" >       24      202      202      291      300 </v>
   <v type="int" >       48      202      291      292      300 </v>
   <v type="int" >       48      203      220      221      301 </v>
   <v type="int" >       48      203      204      221      301 </v>
   <v type="int" >       48      203      204      293      301 </v>
   <v type="int" >       48      203      220      300      301 </v>
   <v type="int" >       48      203      292      300      301 </v>
   <v type="int" >       48      203      292      293      301 </v>
   <v type="int" >       48      204      221      222      302 </v>
   <v type="int" >       48      204      205      222      302 </v>
   <v type="int" >       48      204      205      294      302 </v>
   <v type="int" >       48      204      221      301      302 </v>
   <v type="int" >       48      204      293      301      302 </v>
   <v type="int" >       48      204      293      294      302 </v>
   <v type="int" >       48      205      222      223      303 </v>
   <v type="int" >       48      205      206      223      303 </v>
   <v type="int" >       48      205      206      295      303 </v>
   <v type="int" >       48      205      222      302      303 </v>
   <v type="int" >       48      205      294      302      303 </v>
   <v type="int" >       48      205      294      295      303 </v>
   <v type="int" >       48      206      223      224      304 </v>
   <v type="int" >       48      206      207      224      304 </v>
   <v type="int" >       48      206      207      296      304 </v>
   <v type="int" >       48      206      223      303      304 </v>
   <v type="int" >       48      206      295      303      304 </v>
   <v type="int" >       48      206      295      296      304 </v>
   <v type="int" >       48      207      224      225      305 </v>
   <v type="int" >       48      207      208      225      305 </v>
   <v type="int" >       48      207      208      297      305 </v>
   <v type="int" >       48      207      224      304      305 </v>
   <v type="int" >       48      207      296      304      305 </v>
   <v type="int" >       48      207      296      297      305 </v>
   <v type="int" >       48      208      225      226      306 </v>
   <v type="int" >       48      208      209      226      306 </v>
   <v type="int" >       48      208      209      298      306 </v>
   <v type="int" >       48      208      225      305      306 </v>
   <v type="int" >       48      208      297      305      306 </v>
   <v type="int" >       48      208      297      298      306 </v>
   <v type="int" >       48      209      226      227      307 </v>
   <v type="int" >       48      209      210      227      307 </v>
   <v type="int" >       48      209      210      299      307 </v>
   <v type="int" >       48      209      226      306      307 </v>
   <v type="int" >       48      209      298      306      307 </v>
   <v type="int" >       48      209      298      299      307 </v>
   <v type="int" >       48      210      227      228      308 </v>
   <v type="int" >       48      210      211      228      308 </v>
   <v type="int" >       48      210      211      299      308 </v>
   <v type="int" >       48      210      227      307      308 </v>
   <v type="int" >       48      210      299      307      308 </v>
   <v type="int" >       48      210      299      299      308 </v>
   <v type="int" >       48      211      228      229      309 </v>
   <v type="int" >       48      211      212      229      309 </v>
   <v type="int" >       48      211      212      298      309 </v>
   <v type="int" >       48      211      228      308      309 </v>
   <v type="int" >       48      211      299      308      309 </v>
   <v type="int" >       48      211      298      299      309 </v>
   <v type="int" >       48      212      229      230      310 </v>
   <v type="int" >       48      212      213      230      310 </v>
   <v type="int" >       48      212      213      297      310 </v>
   <v type="int" >       48      212      229      309      310 </v>
   <v type="int" >       48      212      298      309      310 </v>
   <v type="int" >       48      212      297      298      310 </v>
   <v type="int" >       48      213      230      231      311 </v>
   <v type="int" >       48      213      214      231      311 </v>
   <v type="int" >       48      213      214      296      311 </v>
   <v type="int" >       48      213      230      310      311 </v>
   <v type="int" >       48      213      297      310      311 </v>
   <v type="int" >       48      213      296      297      311 </v>
   <v type="int" >       48      214      231      232      312 </v>
   <v type="int" >       48      214      215      232      312 </v>
   <v type="int" >       48      214      215      295      312 </v>
   <v type="int" >       48      214      231      311      312 </v>
   <v type="int" >       48      214      296      311      312 </v>
   <v type="int" >       48      214      295      296      312 </v>
   <v type="int" >       48      215      232      233      313 </v>
   <v type="int" >       48      215      216      233      313 </v>
   <v type="int" >       48      215      216      294      313 </v>
   <v type="int" >       48      215      232      312      313 </v>
   <v type="int" >       48      215      295      312      313 </v>
   <v type="int" >       48      215      294      295      313 </v>
   <v type="int" >       48      216      233      234      314 </v>
   <v type="int" >       48      216      217      234      314 </v>
   <v type="int" >       48      216      217      293      314 </v>
   <v type="int" >       48      216      233      313      314 </v>
   <v type="int" >       48      216      294      313      314 </v>
   <v type="int" >       48      216      293      294      314 </v>
   <v type="int" >       24      217      217      234      315 </v>
   <v type="int" >       24      217      217      218      315 </v>
   <v type="int" >       48      217      218      292      315 </v>
   <v type="int" >       48      217      234      314      315 </v>
   <v type="int" >       48      217      293      314      315 </v>
   <v type="int" >       48      217      292      293      315 </v>
   <v type="int" >       24      218      292      292      315 </v>
   <v type="int" >       24      218      291      292      292 </v>
   <v type="int" >       48       17       18       34      172 </v>
   <v type="int" >       48       17       34       35      172 </v>
   <v type="int" >       48       17       35      171      172 </v>
   <v type="int" >       48       81       82       99      219 </v>
   <v type="int" >       48       81       82      202      219 </v>
   <v type="int" >       48       62       81       82      202 </v>
   <v type="int" >       48       99      219      220      235 </v>
   <v type="int" >       24      219      220      220      235 </v>
   <v type="int" >       24      219      220      220      300 </v>
   <v type="int" >       48       82       99      219      220 </v>
   <v type="int" >       48       82      202      219      220 </v>
   <v type="int" >       48      220      235      236      316 </v>
   <v type="int" >       48      220      221      236      316 </v>
   <v type="int" >       48      220      221      301      316 </v>
   <v type="int" >       24      220      220      235      316 </v>
   <v type="int" >       24      220      220      300      316 </v>
   <v type="int" >       48      220      300      301      316 </v>
   <v type="int" >       48      221      236      237      317 </v>
   <v type="int" >       48      221      222      237      317 </v>
   <v type="int" >       48      221      222      302      317 </v>
   <v type="int" >       48      221      236      316      317 </v>
   <v type="int" >       48      221      301      316      317 </v>
   <v type="int" >       48      221      301      302      317 </v>
   <v type="int" >       48      222      237      238      318 </v>
   <v type="int" >       48      222      223      238      318 </v>
   <v type="int" >       48      222      223      303      318 </v>
   <v type="int" >       48      222      237      317      318 </v>
   <v type="int" >       48      222      302      317      318 </v>
   <v type="int" >       48      222      302      303      318 </v>
   <v type="int" >       48      223      238      239      319 </v>
   <v type="int" >       48      223      224      239      319 </v>
   <v type="int" >       48      223      224      304      319 </v>
   <v type="int" >       48      223      238      318      319 </v>
   <v type="int" >       48      223      303      318      319 </v>
   <v type="int" >       48      223      303      304      319 </v>
   <v type="int" >       48      224      239      240      320 </v>
   <v type="int" >       48      224      225      240      320 </v>
   <v type="int" >       48      224      225      305      320 </v>
   <v type="int" >       48      224      239      319      320 </v>
   <v type="int" >       48      224      304      319      320 </v>
   <v type="int" >       48      224      304      305      320 </v>
   <v type="int" >       48      225      240      241      321 </v>
   <v type="int" >       48      225      226      241      321 </v>
   <v type="int" >       48      225      226      306      321 </v>
   <v type="int" >       48      225      240      320      321 </v>
   <v type="int" >       48      225      305      320      321 </v>
   <v type="int" >       48      225      305      306      321 </v>
   <v type="int" >       48      226      241      242      322 </v>
   <v type="int" >       48      226      227      242      322 </v>
   <v type="int" >       48      226      227      307      322 </v>
   <v type="int" >       48      226      241      321      322 </v>
   <v type="int" >       48      226      306      321      322 </v>
   <v type="int" >       48      226      306      307      322 </v>
   <v type="int" >       48      227      242      243      323 </v>
   <v type="int" >       48      227      228      243      323 </v>
   <v type="int" >       48      227      228      308      323 </v>
   <v type="int" >       48      227      242      322      323 </v>
   <v type="int" >       48      227      307      322      323 </v>
   <v type="int" >       48      227      307      308      323 </v>
   <v type="int" >       48      228      243      244      324 </v>
   <v type="int" >       48      228      229      244      324 </v>
   <v type="int" >       48      228      229      309      324 </v>
   <v type="int" >       48      228      243      323      324 </v>
   <v type="int" >       48      228      308      323      324 </v>
   <v type="int" >       48      228      308      309      324 </v>
   <v type="int" >       48      229      244      245      325 </v>
   <v type="int" >       48      229      230      245      325 </v>
   <v type="int" >       48      229      230      310      325 </v>
   <v type="int" >       48      229      244      324      325 </v>
   <v type="int" >       48      229      309      324      325 </v>
   <v type="int" >       48      229      309      310      325 </v>
   <v type="int" >       48      230      245      246      326 </v>
   <v type="int" >       48      230      231      246      326 </v>
   <v type="int" >       48      230      231      311      326 </v>
   <v type="int" >       48      230      245      325      326 </v>
   <v type="int" >       48      230      310      325      326 </v>
   <v type="int" >       48      230      310      311      326 </v>
   <v type="int" >       48      231      246      247      327 </v>
   <v type="int" >       48      231      232      247      327 </v>
   <v type="int" >       48      231      232      312      327 </v>
   <v type="int" >       48      231      246      326      327 </v>
   <v type="int" >       48      231      311      326      327 </v>
   <v type="int" >       48      231      311      312      327 </v>
   <v type="int" >       48      232      247      248      328 </v>
   <v type="int" >       48      232      233      248      328 </v>
   <v type="int" >       48      232      233      313      328 </v>
   <v type="int" >       48      232      247      327      328 </v>
   <v type="int" >       48      232      312      327      328 </v>
   <v type="int" >       48      232      312      313      328 </v>
   <v type="int" >       24      233      233      248      329 </v>
   <v type="int" >       24      233      233      234      329 </v>
   <v type="int" >       48      233      234      314      329 </v>
   <v type="int" >       48      233      248      328      329 </v>
   <v type="int" >       48      233      313      328      329 </v>
   <v type="int" >       48      233      313      314      329 </v>
   <v type="int" >       24      234      314      314      329 </v>
   <v type="int" >       24      234      314      314      315 </v>
   <v type="int" >       48       18       19       33      173 </v>
   <v type="int" >       48       18       33       34      173 </v>
   <v type="int" >       48       18       34      172      173 </v>
   <v type="int" >       48       99      100      115      235 </v>
   <v type="int" >       48       99      100      220      235 </v>
   <v type="int" >       48       82       99      100      220 </v>
   <v type="int" >       48      115      235      236      249 </v>
   <v type="int" >       24      235      236      236      249 </v>
   <v type="int" >       24      235      236      236      316 </v>
   <v type="int" >       48      100      115      235      236 </v>
   <v type="int" >       48      100      220      235      236 </v>
   <v type="int" >       48      236      249      250      330 </v>
   <v type="int" >       48      236      237      250      330 </v>
   <v type="int" >       48      236      237      317      330 </v>
   <v type="int" >       24      236      236      249      330 </v>
   <v type="int" >       24      236      236      316      330 </v>
   <v type="int" >       48      236      316      317      330 </v>
   <v type="int" >       48      237      250      251      331 </v>
   <v type="int" >       48      237      238      251      331 </v>
   <v type="int" >       48      237      238      318      331 </v>
   <v type="int" >       48      237      250      330      331 </v>
   <v type="int" >       48      237      317      330      331 </v>
   <v type="int" >       48      237      317      318      331 </v>
   <v type="int" >       48      238      251      252      332 </v>
   <v type="int" >       48      238      239      252      332 </v>
   <v type="int" >       48      238      239      319      332 </v>
   <v type="int" >       48      238      251      331      332 </v>
   <v type="int" >       48      238      318      331      332 </v>
   <v type="int" >       48      238      318      319      332 </v>
   <v type="int" >       48      239      252      253      333 </v>
   <v type="int" >       48      239      240      253      333 </v>
   <v type="int" >       48      239      240      320      333 </v>
   <v type="int" >       48      239      252      332      333 </v>
   <v type="int" >       48      239      319      332      333 </v>
   <v type="int" >       48      239      319      320      333 </v>
   <v type="int" >       48      240      253      254      334 </v>
   <v type="int" >       48      240      241      254      334 </v>
   <v type="int" >       48      240      241      321      334 </v>
   <v type="int" >       48      240      253      333      334 </v>
   <v type="int" >       48      240      320      333      334 </v>
   <v type="int" >       48      240      320      321      334 </v>
   <v type="int" >       48      241      254      255      335 </v>
   <v type="int" >       48      241      242      255      335 </v>
   <v type="int" >       48      241      242      322      335 </v>
   <v type="int" >       48      241      254      334      335 </v>
   <v type="int" >       48      241      321      334      335 </v>
   <v type="int" >       48      241      321      322      335 </v>
   <v type="int" >       48      242      255      256      336 </v>
   <v type="int" >       48      242      243      256      336 </v>
   <v type="int" >       48      242      243      323      336 </v>
   <v type="int" >       48      242      255      335      336 </v>
   <v type="int" >       48      242      322      335      336 </v>
   <v type="int" >       48      242      322      323      336 </v>
   <v type="int" >       48      243      256      257      337 </v>
   <v type="int" >       48      243      244      257      337 </v>
   <v type="int" >       48      243      244      324      337 </v>
   <v type="int" >       48      243      256      336      337 </v>
   <v type="int" >       48      243      323      336      337 </v>
   <v type="int" >       48      243      323      324      337 </v>
   <v type="int" >       48      244      257      258      338 </v>
[...]
       <r>    4.7245    1.0000 </r>
       <r>    6.0562   -0.0112 </r>
       <r>    8.0288    0.0000 </r>
       <r>   17.0037    0.0000 </r>
      </set>
      <set comment="kpoint 439">
       <r>    2.5344    1.0000 </r>
       <r>    5.4184    0.8647 </r>
       <r>    6.1137    0.0000 </r>
       <r>    8.3951    0.0000 </r>
       <r>   17.3112    0.0000 </r>
      </set>
      <set comment="kpoint 440">
       <r>    2.5797    1.0000 </r>
       <r>    6.0765   -0.0527 </r>
       <r>    6.6014    0.0000 </r>
       <r>    7.3882    0.0000 </r>
       <r>   15.7126    0.0000 </r>
      </set>
      <set comment="kpoint 441">
       <r>    3.2982    1.0000 </r>
       <r>    5.6059    0.5118 </r>
       <r>    5.9494   -0.0002 </r>
       <r>    7.2645    0.0000 </r>
       <r>   16.1459    0.0000 </r>
      </set>
      <set comment="kpoint 442">
       <r>    4.0498    1.0000 </r>
       <r>    4.9109    1.0049 </r>
       <r>    5.4700    0.2826 </r>
       <r>    7.4211    0.0000 </r>
       <r>   16.4120    0.0000 </r>
      </set>
      <set comment="kpoint 443">
       <r>    4.0769    1.0000 </r>
       <r>    4.6901    1.0000 </r>
       <r>    5.3977    0.3850 </r>
       <r>    7.6846    0.0000 </r>
       <r>   16.6915    0.0000 </r>
      </set>
      <set comment="kpoint 444">
       <r>    3.6021    1.0000 </r>
       <r>    4.9081    1.0491 </r>
       <r>    6.5106    0.0000 </r>
       <r>    7.2733    0.0000 </r>
       <r>   15.6239    0.0000 </r>
      </set>
      <set comment="kpoint 445">
       <r>    4.1437    1.0000 </r>
       <r>    4.7399    1.0074 </r>
       <r>    5.8496   -0.0640 </r>
       <r>    7.2089    0.0000 </r>
       <r>   16.1033    0.0000 </r>
      </set>
      <set comment="kpoint 446">
       <r>    2.0242    1.0000 </r>
       <r>    6.0556   -0.1479 </r>
       <r>    6.7159    0.0000 </r>
       <r>    7.9359    0.0000 </r>
       <r>   17.4064    0.0000 </r>
      </set>
      <set comment="kpoint 447">
       <r>    2.7536    1.0000 </r>
       <r>    5.3115    0.8684 </r>
       <r>    6.6048    0.0000 </r>
       <r>    7.5334    0.0000 </r>
       <r>   17.6974    0.0000 </r>
      </set>
      <set comment="kpoint 448">
       <r>    3.5303    1.0000 </r>
       <r>    4.4433    1.0000 </r>
       <r>    6.7104    0.0000 </r>
       <r>    7.2547    0.0000 </r>
       <r>   17.7825    0.0000 </r>
      </set>
      <set comment="kpoint 449">
       <r>    2.9950    1.0000 </r>
       <r>    5.8737    0.0342 </r>
       <r>    6.2859    0.0000 </r>
       <r>    6.8759    0.0000 </r>
       <r>   17.2325    0.0000 </r>
      </set>
      <set comment="kpoint 450">
       <r>    3.7526    1.0000 </r>
       <r>    5.1637    1.0096 </r>
       <r>    6.0682   -0.0260 </r>
       <r>    6.6931    0.0000 </r>
       <r>   17.6326    0.0000 </r>
      </set>
      <set comment="kpoint 451">
       <r>    4.2591    1.0000 </r>
       <r>    4.6170    1.0000 </r>
       <r>    5.8757   -0.0494 </r>
       <r>    6.8369    0.0000 </r>
       <r>   17.8607    0.0000 </r>
      </set>
      <set comment="kpoint 452">
       <r>    3.4980    1.0000 </r>
       <r>    5.2365    0.9964 </r>
       <r>    5.8953   -0.0009 </r>
       <r>    7.1343    0.0000 </r>
       <r>   18.0611    0.0000 </r>
      </set>
      <set comment="kpoint 453">
       <r>    4.0118    1.0000 </r>
       <r>    5.2836    0.9681 </r>
       <r>    5.7828   -0.0376 </r>
       <r>    6.6008    0.0000 </r>
       <r>   17.1454    0.0000 </r>
      </set>
      <set comment="kpoint 454">
       <r>    4.5991    1.0000 </r>
       <r>    4.9738    1.0000 </r>
       <r>    5.3561    0.5515 </r>
       <r>    6.5730    0.0000 </r>
       <r>   17.6012    0.0000 </r>
      </set>
      <set comment="kpoint 455">
       <r>    4.5035    1.0000 </r>
       <r>    5.1455    1.0000 </r>
       <r>    5.5468    0.0741 </r>
       <r>    6.2180    0.0000 </r>
       <r>   18.7431    0.0000 </r>
      </set>
     </set>
    </set>
   </array>
  </eigenvalues>
  <separator name="orbital magnetization" >
   <v name="MAGDIPOLOUT">      0.00000000      0.00000000      0.00000000</v>
  </separator>
  <dos>
   <i name="efermi">      5.48812567 </i>
   <total>
    <array>
     <dimension dim="1">gridpoints</dimension>
     <dimension dim="2">spin</dimension>
     <field>energy</field>
     <field>total</field>
     <field>integrated</field>
     <set>
      <set comment="spin 1">
       <r>    -5.9318     0.0000     0.0000 </r>
       <r>    -5.8429     0.0000     0.0000 </r>
       <r>    -5.7540     0.0000     0.0000 </r>
       <r>    -5.6651     0.0000     0.0000 </r>
       <r>    -5.5762     0.0000     0.0000 </r>
       <r>    -5.4872     0.0000     0.0000 </r>
       <r>    -5.3983     0.0000     0.0000 </r>
       <r>    -5.3094     0.0000     0.0000 </r>
       <r>    -5.2205     0.0000     0.0000 </r>
       <r>    -5.1316     0.0000     0.0000 </r>
       <r>    -5.0427     0.0000     0.0000 </r>
       <r>    -4.9537     0.0000     0.0000 </r>
       <r>    -4.8648     0.0000     0.0000 </r>
       <r>    -4.7759     0.0000     0.0000 </r>
       <r>    -4.6870     0.0000     0.0000 </r>
       <r>    -4.5981     0.0000     0.0000 </r>
       <r>    -4.5092     0.0000     0.0000 </r>
       <r>    -4.4202     0.0000     0.0000 </r>
       <r>    -4.3313     0.0000     0.0000 </r>
       <r>    -4.2424     0.0000     0.0000 </r>
       <r>    -4.1535     0.0000     0.0000 </r>
       <r>    -4.0646     0.0000     0.0000 </r>
       <r>    -3.9757     0.0000     0.0000 </r>
       <r>    -3.8867     0.0268     0.0006 </r>
       <r>    -3.7978     0.0578     0.0043 </r>
       <r>    -3.7089     0.0706     0.0097 </r>
       <r>    -3.6200     0.0816     0.0165 </r>
       <r>    -3.5311     0.0954     0.0243 </r>
       <r>    -3.4422     0.1038     0.0332 </r>
       <r>    -3.3532     0.1139     0.0428 </r>
       <r>    -3.2643     0.1224     0.0534 </r>
       <r>    -3.1754     0.1300     0.0646 </r>
       <r>    -3.0865     0.1384     0.0765 </r>
       <r>    -2.9976     0.1456     0.0892 </r>
       <r>    -2.9087     0.1519     0.1024 </r>
       <r>    -2.8198     0.1590     0.1162 </r>
       <r>    -2.7308     0.1662     0.1307 </r>
       <r>    -2.6419     0.1715     0.1457 </r>
       <r>    -2.5530     0.1773     0.1612 </r>
       <r>    -2.4641     0.1834     0.1772 </r>
       <r>    -2.3752     0.1898     0.1938 </r>
       <r>    -2.2863     0.1946     0.2109 </r>
       <r>    -2.1973     0.1996     0.2284 </r>
       <r>    -2.1084     0.2050     0.2464 </r>
       <r>    -2.0195     0.2105     0.2649 </r>
       <r>    -1.9306     0.2157     0.2838 </r>
       <r>    -1.8417     0.2201     0.3032 </r>
       <r>    -1.7528     0.2247     0.3230 </r>
       <r>    -1.6638     0.2296     0.3432 </r>
       <r>    -1.5749     0.2346     0.3638 </r>
       <r>    -1.4860     0.2394     0.3849 </r>
       <r>    -1.3971     0.2435     0.4064 </r>
       <r>    -1.3082     0.2477     0.4282 </r>
       <r>    -1.2193     0.2521     0.4504 </r>
       <r>    -1.1303     0.2566     0.4730 </r>
       <r>    -1.0414     0.2612     0.4961 </r>
       <r>    -0.9525     0.2653     0.5195 </r>
       <r>    -0.8636     0.2692     0.5432 </r>
       <r>    -0.7747     0.2731     0.5674 </r>
       <r>    -0.6858     0.2772     0.5918 </r>
       <r>    -0.5968     0.2813     0.6166 </r>
       <r>    -0.5079     0.2856     0.6419 </r>
       <r>    -0.4190     0.2896     0.6674 </r>
       <r>    -0.3301     0.2932     0.6933 </r>
       <r>    -0.2412     0.2969     0.7196 </r>
       <r>    -0.1523     0.3007     0.7461 </r>
       <r>    -0.0633     0.3046     0.7731 </r>
       <r>     0.0256     0.3086     0.8003 </r>
       <r>     0.1145     0.3127     0.8279 </r>
       <r>     0.2034     0.3162     0.8559 </r>
       <r>     0.2923     0.3198     0.8842 </r>
       <r>     0.3812     0.3234     0.9128 </r>
       <r>     0.4702     0.3272     0.9417 </r>
       <r>     0.5591     0.3310     0.9709 </r>
       <r>     0.6480     0.3350     1.0006 </r>
       <r>     0.7369     0.3391     1.0305 </r>
       <r>     0.8258     0.3431     1.0609 </r>
       <r>     0.9147     0.3471     1.0915 </r>
       <r>     1.0037     0.3517     1.1226 </r>
       <r>     1.0926     0.3574     1.1541 </r>
       <r>     1.1815     0.3652     1.1862 </r>
       <r>     1.2704     0.3781     1.2193 </r>
       <r>     1.3593     0.4002     1.2542 </r>
       <r>     1.4482     0.3821     1.2890 </r>
       <r>     1.5372     0.3864     1.3236 </r>
       <r>     1.6261     0.3771     1.3579 </r>
       <r>     1.7150     0.3577     1.3903 </r>
       <r>     1.8039     0.3500     1.4217 </r>
       <r>     1.8928     0.3521     1.4541 </r>
       <r>     1.9817     0.3358     1.4846 </r>
       <r>     2.0707     0.3538     1.5154 </r>
       <r>     2.1596     0.3608     1.5469 </r>
       <r>     2.2485     0.3810     1.5803 </r>
       <r>     2.3374     0.3841     1.6139 </r>
       <r>     2.4263     0.4075     1.6492 </r>
       <r>     2.5152     0.3934     1.6846 </r>
       <r>     2.6042     0.3977     1.7199 </r>
       <r>     2.6931     0.3979     1.7551 </r>
       <r>     2.7820     0.4097     1.7909 </r>
       <r>     2.8709     0.4168     1.8287 </r>
       <r>     2.9598     0.4307     1.8660 </r>
       <r>     3.0487     0.4430     1.9046 </r>
       <r>     3.1377     0.4456     1.9439 </r>
       <r>     3.2266     0.4394     1.9834 </r>
       <r>     3.3155     0.4411     2.0225 </r>
       <r>     3.4044     0.4471     2.0619 </r>
       <r>     3.4933     0.4276     2.1008 </r>
       <r>     3.5822     0.4179     2.1383 </r>
       <r>     3.6712     0.4234     2.1755 </r>
       <r>     3.7601     0.4237     2.2136 </r>
       <r>     3.8490     0.4052     2.2506 </r>
       <r>     3.9379     0.4046     2.2864 </r>
       <r>     4.0268     0.4020     2.3220 </r>
       <r>     4.1157     0.4329     2.3595 </r>
       <r>     4.2047     0.4329     2.3979 </r>
       <r>     4.2936     0.4488     2.4368 </r>
       <r>     4.3825     0.4695     2.4777 </r>
       <r>     4.4714     0.5098     2.5211 </r>
       <r>     4.5603     0.5095     2.5672 </r>
       <r>     4.6492     0.4776     2.6111 </r>
       <r>     4.7382     0.4826     2.6536 </r>
       <r>     4.8271     0.4799     2.6966 </r>
       <r>     4.9160     0.4543     2.7383 </r>
       <r>     5.0049     0.4414     2.7778 </r>
       <r>     5.0938     0.4529     2.8175 </r>
       <r>     5.1827     0.4734     2.8587 </r>
       <r>     5.2717     0.4500     2.8990 </r>
       <r>     5.3606     0.4583     2.9395 </r>
       <r>     5.4495     0.4807     2.9814 </r>
       <r>     5.5384     0.5060     3.0249 </r>
       <r>     5.6273     0.5005     3.0695 </r>
       <r>     5.7162     0.5097     3.1144 </r>
       <r>     5.8052     0.5175     3.1599 </r>
       <r>     5.8941     0.5038     3.2055 </r>
       <r>     5.9830     0.5120     3.2505 </r>
       <r>     6.0719     0.5003     3.2953 </r>
       <r>     6.1608     0.4948     3.3395 </r>
       <r>     6.2497     0.5023     3.3838 </r>
       <r>     6.3387     0.4994     3.4284 </r>
       <r>     6.4276     0.5046     3.4729 </r>
       <r>     6.5165     0.5203     3.5184 </r>
       <r>     6.6054     0.5364     3.5658 </r>
       <r>     6.6943     0.5239     3.6126 </r>
       <r>     6.7832     0.5290     3.6594 </r>
       <r>     6.8722     0.5370     3.7068 </r>
       <r>     6.9611     0.5368     3.7545 </r>
       <r>     7.0500     0.5269     3.8018 </r>
       <r>     7.1389     0.5291     3.8487 </r>
       <r>     7.2278     0.5401     3.8961 </r>
       <r>     7.3167     0.5417     3.9444 </r>
       <r>     7.4057     0.5425     3.9924 </r>
       <r>     7.4946     0.5497     4.0410 </r>
       <r>     7.5835     0.5554     4.0901 </r>
       <r>     7.6724     0.5546     4.1396 </r>
       <r>     7.7613     0.5559     4.1889 </r>
       <r>     7.8502     0.5629     4.2386 </r>
       <r>     7.9392     0.5680     4.2890 </r>
       <r>     8.0281     0.5762     4.3398 </r>
       <r>     8.1170     0.5703     4.3907 </r>
       <r>     8.2059     0.5691     4.4415 </r>
       <r>     8.2948     0.5709     4.4922 </r>
       <r>     8.3837     0.5737     4.5431 </r>
       <r>     8.4727     0.5809     4.5943 </r>
       <r>     8.5616     0.5872     4.6464 </r>
       <r>     8.6505     0.5896     4.6986 </r>
       <r>     8.7394     0.5964     4.7514 </r>
       <r>     8.8283     0.6020     4.8047 </r>
       <r>     8.9172     0.5971     4.8580 </r>
       <r>     9.0062     0.6051     4.9115 </r>
       <r>     9.0951     0.6073     4.9654 </r>
       <r>     9.1840     0.6140     5.0197 </r>
       <r>     9.2729     0.6206     5.0745 </r>
       <r>     9.3618     0.6282     5.1301 </r>
       <r>     9.4507     0.6337     5.1861 </r>
       <r>     9.5396     0.6338     5.2426 </r>
       <r>     9.6286     0.6551     5.2997 </r>
       <r>     9.7175     0.6597     5.3579 </r>
       <r>     9.8064     0.6753     5.4175 </r>
       <r>     9.8953     0.6930     5.4782 </r>
       <r>     9.9842     0.7211     5.5411 </r>
       <r>    10.0731     0.7373     5.6062 </r>
       <r>    10.1621     0.7071     5.6695 </r>
       <r>    10.2510     0.6989     5.7322 </r>
       <r>    10.3399     0.6910     5.7940 </r>
       <r>    10.4288     0.6817     5.8551 </r>
       <r>    10.5177     0.6660     5.9150 </r>
       <r>    10.6066     0.6535     5.9736 </r>
       <r>    10.6956     0.6469     6.0314 </r>
       <r>    10.7845     0.6392     6.0886 </r>
       <r>    10.8734     0.6329     6.1451 </r>
       <r>    10.9623     0.6253     6.2011 </r>
       <r>    11.0512     0.6190     6.2564 </r>
       <r>    11.1401     0.6132     6.3112 </r>
       <r>    11.2291     0.6066     6.3654 </r>
       <r>    11.3180     0.5990     6.4190 </r>
       <r>    11.4069     0.5960     6.4721 </r>
       <r>    11.4958     0.5983     6.5252 </r>
       <r>    11.5847     0.5997     6.5785 </r>
       <r>    11.6736     0.5984     6.6317 </r>
       <r>    11.7626     0.5970     6.6848 </r>
       <r>    11.8515     0.5977     6.7380 </r>
       <r>    11.9404     0.5990     6.7912 </r>
       <r>    12.0293     0.6002     6.8445 </r>
       <r>    12.1182     0.6069     6.8981 </r>
       <r>    12.2071     0.6104     6.9522 </r>
       <r>    12.2961     0.6125     7.0066 </r>
       <r>    12.3850     0.6126     7.0611 </r>
       <r>    12.4739     0.6131     7.1156 </r>
       <r>    12.5628     0.6130     7.1701 </r>
       <r>    12.6517     0.6126     7.2246 </r>
       <r>    12.7406     0.6147     7.2791 </r>
       <r>    12.8296     0.6178     7.3339 </r>
       <r>    12.9185     0.6190     7.3889 </r>
       <r>    13.0074     0.6192     7.4440 </r>
       <r>    13.0963     0.6179     7.4990 </r>
       <r>    13.1852     0.6168     7.5539 </r>
       <r>    13.2741     0.6153     7.6086 </r>
       <r>    13.3631     0.6149     7.6633 </r>
       <r>    13.4520     0.6157     7.7180 </r>
       <r>    13.5409     0.6185     7.7729 </r>
       <r>    13.6298     0.6184     7.8279 </r>
       <r>    13.7187     0.6172     7.8829 </r>
       <r>    13.8076     0.6163     7.9377 </r>
       <r>    13.8966     0.6154     7.9925 </r>
       <r>    13.9855     0.6123     8.0471 </r>
       <r>    14.0744     0.6084     8.1013 </r>
       <r>    14.1633     0.6114     8.1555 </r>
       <r>    14.2522     0.6139     8.2099 </r>
       <r>    14.3411     0.6308     8.2651 </r>
       <r>    14.4301     0.6211     8.3207 </r>
       <r>    14.5190     0.6200     8.3759 </r>
       <r>    14.6079     0.6169     8.4309 </r>
       <r>    14.6968     0.6144     8.4856 </r>
       <r>    14.7857     0.6106     8.5401 </r>
       <r>    14.8746     0.6068     8.5942 </r>
       <r>    14.9636     0.6060     8.6481 </r>
       <r>    15.0525     0.6041     8.7019 </r>
       <r>    15.1414     0.6065     8.7557 </r>
       <r>    15.2303     0.6106     8.8098 </r>
       <r>    15.3192     0.6135     8.8642 </r>
       <r>    15.4081     0.6193     8.9190 </r>
       <r>    15.4971     0.6298     8.9745 </r>
       <r>    15.5860     0.6469     9.0312 </r>
       <r>    15.6749     0.6812     9.0901 </r>
       <r>    15.7638     0.7436     9.1531 </r>
       <r>    15.8527     0.7231     9.2193 </r>
       <r>    15.9416     0.7051     9.2825 </r>
       <r>    16.0306     0.6317     9.3424 </r>
       <r>    16.1195     0.6028     9.3970 </r>
       <r>    16.2084     0.5784     9.4495 </r>
       <r>    16.2973     0.5913     9.5013 </r>
       <r>    16.3862     0.5584     9.5523 </r>
       <r>    16.4751     0.4720     9.5981 </r>
       <r>    16.5641     0.4303     9.6377 </r>
       <r>    16.6530     0.4199     9.6754 </r>
       <r>    16.7419     0.3978     9.7118 </r>
       <r>    16.8308     0.3903     9.7466 </r>
       <r>    16.9197     0.3902     9.7815 </r>
       <r>    17.0086     0.3686     9.8155 </r>
       <r>    17.0976     0.3157     9.8464 </r>
       <r>    17.1865     0.2632     9.8717 </r>
       <r>    17.2754     0.2347     9.8937 </r>
       <r>    17.3643     0.2212     9.9139 </r>
       <r>    17.4532     0.2063     9.9329 </r>
       <r>    17.5421     0.1746     9.9500 </r>
       <r>    17.6311     0.1396     9.9638 </r>
       <r>    17.7200     0.1318     9.9761 </r>
       <r>    17.8089     0.1008     9.9863 </r>
       <r>    17.8978     0.0363     9.9922 </r>
       <r>    17.9867     0.0195     9.9945 </r>
       <r>    18.0756     0.0136     9.9959 </r>
       <r>    18.1646     0.0103     9.9970 </r>
       <r>    18.2535     0.0080     9.9978 </r>
       <r>    18.3424     0.0065     9.9984 </r>
       <r>    18.4313     0.0051     9.9989 </r>
       <r>    18.5202     0.0038     9.9993 </r>
       <r>    18.6091     0.0027     9.9996 </r>
       <r>    18.6981     0.0018     9.9998 </r>
       <r>    18.7870     0.0014    10.0000 </r>
       <r>    18.8759     0.0000    10.0000 </r>
       <r>    18.9648     0.0000    10.0000 </r>
       <r>    19.0537     0.0000    10.0000 </r>
       <r>    19.1426     0.0000    10.0000 </r>
       <r>    19.2316     0.0000    10.0000 </r>
       <r>    19.3205     0.0000    10.0000 </r>
       <r>    19.4094     0.0000    10.0000 </r>
       <r>    19.4983     0.0000    10.0000 </r>
       <r>    19.5872     0.0000    10.0000 </r>
       <r>    19.6761     0.0000    10.0000 </r>
       <r>    19.7651     0.0000    10.0000 </r>
       <r>    19.8540     0.0000    10.0000 </r>
       <r>    19.9429     0.0000    10.0000 </r>
       <r>    20.0318     0.0000    10.0000 </r>
       <r>    20.1207     0.0000    10.0000 </r>
       <r>    20.2096     0.0000    10.0000 </r>
       <r>    20.2986     0.0000    10.0000 </r>
       <r>    20.3875     0.0000    10.0000 </r>
       <r>    20.4764     0.0000    10.0000 </r>
       <r>    20.5653     0.0000    10.0000 </r>
       <r>    20.6542     0.0000    10.0000 </r>
       <r>    20.7431     0.0000    10.0000 </r>
      </set>
     </set>
    </array>
   </total>
  </dos>
 </calculation>
 <structure name="finalpos" >
  <crystal>
   <varray name="basis" >
    <v>       3.12117284       0.00000000       0.00000000 </v>
    <v>       1.56058642       2.70301497       0.00000000 </v>
    <v>       1.56058642       0.90100499       2.54842695 </v>
   </varray>
   <i name="volume">     21.50000000 </i>
   <varray name="rec_basis" >
    <v>       0.32039238      -0.18497863      -0.13079964 </v>
    <v>       0.00000000       0.36995726      -0.13079964 </v>
    <v>       0.00000000       0.00000000       0.39239893 </v>
   </varray>
  </crystal>
  <varray name="positions" >
   <v>       0.00000000       0.00000000       0.00000000 </v>
  </varray>
 </structure>
</modeling>
