Al atom                                 
           1
     3.121173    0.000000    0.000000
     1.560586    2.703015    0.000000
     1.560586    0.901005    2.548427
   Al
     1
Direct configuration=     1
   0.00000000  0.00000000  0.00000000
