Al atom                                 
           1
     2.339131    0.000000    0.000000
     1.169565    2.025747    0.000000
     1.169565    0.675249    1.909892
   Al
     1
Direct configuration=     1
   0.00000000  0.00000000  0.00000000
