Al atom                                 
           1
     2.863400    0.000000    0.000000
     1.431700    2.479777    0.000000
     1.431700    0.826592    2.337956
   Al
     1
Direct configuration=     1
   0.00000000  0.00000000  0.00000000
